<?xml version="1.0"?>
<VTKFile type="UnstructuredGrid"  version="0.1"  >
<UnstructuredGrid>
<Piece  NumberOfPoints="441" NumberOfCells="800">
<Points>
<DataArray  type="Float64"  NumberOfComponents="3"  format="ascii">0 0 0  0.05 0 0  0.1 0 0  0.15 0 0  0.2 0 0  0.25 0 0  0.3 0 0  0.35 0 0  0.4 0 0  0.45 0 0  0.5 0 0  0.55 0 0  0.6 0 0  0.65 0 0  0.7 0 0  0.75 0 0  0.8 0 0  0.85 0 0  0.9 0 0  0.95 0 0  1 0 0  0 0.05 0  0.05 0.05 0  0.1 0.05 0  0.15 0.05 0  0.2 0.05 0  0.25 0.05 0  0.3 0.05 0  0.35 0.05 0  0.4 0.05 0  0.45 0.05 0  0.5 0.05 0  0.55 0.05 0  0.6 0.05 0  0.65 0.05 0  0.7 0.05 0  0.75 0.05 0  0.8 0.05 0  0.85 0.05 0  0.9 0.05 0  0.95 0.05 0  1 0.05 0  0 0.1 0  0.05 0.1 0  0.1 0.1 0  0.15 0.1 0  0.2 0.1 0  0.25 0.1 0  0.3 0.1 0  0.35 0.1 0  0.4 0.1 0  0.45 0.1 0  0.5 0.1 0  0.55 0.1 0  0.6 0.1 0  0.65 0.1 0  0.7 0.1 0  0.75 0.1 0  0.8 0.1 0  0.85 0.1 0  0.9 0.1 0  0.95 0.1 0  1 0.1 0  0 0.15 0  0.05 0.15 0  0.1 0.15 0  0.15 0.15 0  0.2 0.15 0  0.25 0.15 0  0.3 0.15 0  0.35 0.15 0  0.4 0.15 0  0.45 0.15 0  0.5 0.15 0  0.55 0.15 0  0.6 0.15 0  0.65 0.15 0  0.7 0.15 0  0.75 0.15 0  0.8 0.15 0  0.85 0.15 0  0.9 0.15 0  0.95 0.15 0  1 0.15 0  0 0.2 0  0.05 0.2 0  0.1 0.2 0  0.15 0.2 0  0.2 0.2 0  0.25 0.2 0  0.3 0.2 0  0.35 0.2 0  0.4 0.2 0  0.45 0.2 0  0.5 0.2 0  0.55 0.2 0  0.6 0.2 0  0.65 0.2 0  0.7 0.2 0  0.75 0.2 0  0.8 0.2 0  0.85 0.2 0  0.9 0.2 0  0.95 0.2 0  1 0.2 0  0 0.25 0  0.05 0.25 0  0.1 0.25 0  0.15 0.25 0  0.2 0.25 0  0.25 0.25 0  0.3 0.25 0  0.35 0.25 0  0.4 0.25 0  0.45 0.25 0  0.5 0.25 0  0.55 0.25 0  0.6 0.25 0  0.65 0.25 0  0.7 0.25 0  0.75 0.25 0  0.8 0.25 0  0.85 0.25 0  0.9 0.25 0  0.95 0.25 0  1 0.25 0  0 0.3 0  0.05 0.3 0  0.1 0.3 0  0.15 0.3 0  0.2 0.3 0  0.25 0.3 0  0.3 0.3 0  0.35 0.3 0  0.4 0.3 0  0.45 0.3 0  0.5 0.3 0  0.55 0.3 0  0.6 0.3 0  0.65 0.3 0  0.7 0.3 0  0.75 0.3 0  0.8 0.3 0  0.85 0.3 0  0.9 0.3 0  0.95 0.3 0  1 0.3 0  0 0.35 0  0.05 0.35 0  0.1 0.35 0  0.15 0.35 0  0.2 0.35 0  0.25 0.35 0  0.3 0.35 0  0.35 0.35 0  0.4 0.35 0  0.45 0.35 0  0.5 0.35 0  0.55 0.35 0  0.6 0.35 0  0.65 0.35 0  0.7 0.35 0  0.75 0.35 0  0.8 0.35 0  0.85 0.35 0  0.9 0.35 0  0.95 0.35 0  1 0.35 0  0 0.4 0  0.05 0.4 0  0.1 0.4 0  0.15 0.4 0  0.2 0.4 0  0.25 0.4 0  0.3 0.4 0  0.35 0.4 0  0.4 0.4 0  0.45 0.4 0  0.5 0.4 0  0.55 0.4 0  0.6 0.4 0  0.65 0.4 0  0.7 0.4 0  0.75 0.4 0  0.8 0.4 0  0.85 0.4 0  0.9 0.4 0  0.95 0.4 0  1 0.4 0  0 0.45 0  0.05 0.45 0  0.1 0.45 0  0.15 0.45 0  0.2 0.45 0  0.25 0.45 0  0.3 0.45 0  0.35 0.45 0  0.4 0.45 0  0.45 0.45 0  0.5 0.45 0  0.55 0.45 0  0.6 0.45 0  0.65 0.45 0  0.7 0.45 0  0.75 0.45 0  0.8 0.45 0  0.85 0.45 0  0.9 0.45 0  0.95 0.45 0  1 0.45 0  0 0.5 0  0.05 0.5 0  0.1 0.5 0  0.15 0.5 0  0.2 0.5 0  0.25 0.5 0  0.3 0.5 0  0.35 0.5 0  0.4 0.5 0  0.45 0.5 0  0.5 0.5 0  0.55 0.5 0  0.6 0.5 0  0.65 0.5 0  0.7 0.5 0  0.75 0.5 0  0.8 0.5 0  0.85 0.5 0  0.9 0.5 0  0.95 0.5 0  1 0.5 0  0 0.55 0  0.05 0.55 0  0.1 0.55 0  0.15 0.55 0  0.2 0.55 0  0.25 0.55 0  0.3 0.55 0  0.35 0.55 0  0.4 0.55 0  0.45 0.55 0  0.5 0.55 0  0.55 0.55 0  0.6 0.55 0  0.65 0.55 0  0.7 0.55 0  0.75 0.55 0  0.8 0.55 0  0.85 0.55 0  0.9 0.55 0  0.95 0.55 0  1 0.55 0  0 0.6 0  0.05 0.6 0  0.1 0.6 0  0.15 0.6 0  0.2 0.6 0  0.25 0.6 0  0.3 0.6 0  0.35 0.6 0  0.4 0.6 0  0.45 0.6 0  0.5 0.6 0  0.55 0.6 0  0.6 0.6 0  0.65 0.6 0  0.7 0.6 0  0.75 0.6 0  0.8 0.6 0  0.85 0.6 0  0.9 0.6 0  0.95 0.6 0  1 0.6 0  0 0.65 0  0.05 0.65 0  0.1 0.65 0  0.15 0.65 0  0.2 0.65 0  0.25 0.65 0  0.3 0.65 0  0.35 0.65 0  0.4 0.65 0  0.45 0.65 0  0.5 0.65 0  0.55 0.65 0  0.6 0.65 0  0.65 0.65 0  0.7 0.65 0  0.75 0.65 0  0.8 0.65 0  0.85 0.65 0  0.9 0.65 0  0.95 0.65 0  1 0.65 0  0 0.7 0  0.05 0.7 0  0.1 0.7 0  0.15 0.7 0  0.2 0.7 0  0.25 0.7 0  0.3 0.7 0  0.35 0.7 0  0.4 0.7 0  0.45 0.7 0  0.5 0.7 0  0.55 0.7 0  0.6 0.7 0  0.65 0.7 0  0.7 0.7 0  0.75 0.7 0  0.8 0.7 0  0.85 0.7 0  0.9 0.7 0  0.95 0.7 0  1 0.7 0  0 0.75 0  0.05 0.75 0  0.1 0.75 0  0.15 0.75 0  0.2 0.75 0  0.25 0.75 0  0.3 0.75 0  0.35 0.75 0  0.4 0.75 0  0.45 0.75 0  0.5 0.75 0  0.55 0.75 0  0.6 0.75 0  0.65 0.75 0  0.7 0.75 0  0.75 0.75 0  0.8 0.75 0  0.85 0.75 0  0.9 0.75 0  0.95 0.75 0  1 0.75 0  0 0.8 0  0.05 0.8 0  0.1 0.8 0  0.15 0.8 0  0.2 0.8 0  0.25 0.8 0  0.3 0.8 0  0.35 0.8 0  0.4 0.8 0  0.45 0.8 0  0.5 0.8 0  0.55 0.8 0  0.6 0.8 0  0.65 0.8 0  0.7 0.8 0  0.75 0.8 0  0.8 0.8 0  0.85 0.8 0  0.9 0.8 0  0.95 0.8 0  1 0.8 0  0 0.85 0  0.05 0.85 0  0.1 0.85 0  0.15 0.85 0  0.2 0.85 0  0.25 0.85 0  0.3 0.85 0  0.35 0.85 0  0.4 0.85 0  0.45 0.85 0  0.5 0.85 0  0.55 0.85 0  0.6 0.85 0  0.65 0.85 0  0.7 0.85 0  0.75 0.85 0  0.8 0.85 0  0.85 0.85 0  0.9 0.85 0  0.95 0.85 0  1 0.85 0  0 0.9 0  0.05 0.9 0  0.1 0.9 0  0.15 0.9 0  0.2 0.9 0  0.25 0.9 0  0.3 0.9 0  0.35 0.9 0  0.4 0.9 0  0.45 0.9 0  0.5 0.9 0  0.55 0.9 0  0.6 0.9 0  0.65 0.9 0  0.7 0.9 0  0.75 0.9 0  0.8 0.9 0  0.85 0.9 0  0.9 0.9 0  0.95 0.9 0  1 0.9 0  0 0.95 0  0.05 0.95 0  0.1 0.95 0  0.15 0.95 0  0.2 0.95 0  0.25 0.95 0  0.3 0.95 0  0.35 0.95 0  0.4 0.95 0  0.45 0.95 0  0.5 0.95 0  0.55 0.95 0  0.6 0.95 0  0.65 0.95 0  0.7 0.95 0  0.75 0.95 0  0.8 0.95 0  0.85 0.95 0  0.9 0.95 0  0.95 0.95 0  1 0.95 0  0 1 0  0.05 1 0  0.1 1 0  0.15 1 0  0.2 1 0  0.25 1 0  0.3 1 0  0.35 1 0  0.4 1 0  0.45 1 0  0.5 1 0  0.55 1 0  0.6 1 0  0.65 1 0  0.7 1 0  0.75 1 0  0.8 1 0  0.85 1 0  0.9 1 0  0.95 1 0  1 1 0  </DataArray>
</Points>
<Cells>
[...]
<PointData  Vectors="f_137"> 
<DataArray  type="Float64"  Name="f_137"  NumberOfComponents="3" format="ascii">0.0000000000000000e+00 0.0000000000000000e+00 0.0000000000000000e+00  0.0000000000000000e+00 0.0000000000000000e+00 0.0000000000000000e+00  0.0000000000000000e+00 0.0000000000000000e+00 0.0000000000000000e+00  0.0000000000000000e+00 0.0000000000000000e+00 0.0000000000000000e+00  0.0000000000000000e+00 0.0000000000000000e+00 0.0000000000000000e+00  0.0000000000000000e+00 0.0000000000000000e+00 0.0000000000000000e+00  0.0000000000000000e+00 0.0000000000000000e+00 0.0000000000000000e+00  0.0000000000000000e+00 0.0000000000000000e+00 0.0000000000000000e+00  0.0000000000000000e+00 0.0000000000000000e+00 0.0000000000000000e+00  0.0000000000000000e+00 0.0000000000000000e+00 0.0000000000000000e+00  0.0000000000000000e+00 0.0000000000000000e+00 0.0000000000000000e+00  0.0000000000000000e+00 0.0000000000000000e+00 0.0000000000000000e+00  0.0000000000000000e+00 0.0000000000000000e+00 0.0000000000000000e+00  0.0000000000000000e+00 0.0000000000000000e+00 0.0000000000000000e+00  0.0000000000000000e+00 0.0000000000000000e+00 0.0000000000000000e+00  0.0000000000000000e+00 0.0000000000000000e+00 0.0000000000000000e+00  0.0000000000000000e+00 0.0000000000000000e+00 0.0000000000000000e+00  0.0000000000000000e+00 0.0000000000000000e+00 0.0000000000000000e+00  0.0000000000000000e+00 0.0000000000000000e+00 0.0000000000000000e+00  0.0000000000000000e+00 0.0000000000000000e+00 0.0000000000000000e+00  0.0000000000000000e+00 0.0000000000000000e+00 0.0000000000000000e+00  0.0000000000000000e+00 0.0000000000000000e+00 0.0000000000000000e+00  -7.9489305314928691e-04 7.8732224550076492e-04 0.0000000000000000e+00  -2.3171591889893685e-03 9.6470363658598859e-04 0.0000000000000000e+00  -3.9070161096100078e-03 9.2860350090613608e-04 0.0000000000000000e+00  -5.4039469235029067e-03 8.6403329578492644e-04 0.0000000000000000e+00  -6.7732249432137853e-03 7.7883343984246902e-04 0.0000000000000000e+00  -7.9791549966404165e-03 6.7385469327980053e-04 0.0000000000000000e+00  -8.9902130821557635e-03 5.5027103443150991e-04 0.0000000000000000e+00  -9.7774864569901386e-03 4.0956320815963286e-04 0.0000000000000000e+00  -1.0315378759619657e-02 2.5366421710048599e-04 0.0000000000000000e+00  -1.0582346714021463e-02 8.5074955670262671e-05 0.0000000000000000e+00  -1.0561836573416890e-02 -9.2938593176792878e-05 0.0000000000000000e+00  -1.0243524113127588e-02 -2.7615012271642011e-04 0.0000000000000000e+00  -9.6247884007104670e-03 -4.5923828635349327e-04 0.0000000000000000e+00  -8.7123413012219538e-03 -6.3580247640898234e-04 0.0000000000000000e+00  -7.5235802481086449e-03 -7.9857167026977532e-04 0.0000000000000000e+00  -6.0876897581499815e-03 -9.3985388836503717e-04 0.0000000000000000e+00  -4.4458517894776541e-03 -1.0507636606861771e-03 0.0000000000000000e+00  -2.6617543340600462e-03 -1.1060256159687813e-03 0.0000000000000000e+00  -9.0852681327588999e-04 -9.0973930174814384e-04 0.0000000000000000e+00  0.0000000000000000e+00 0.0000000000000000e+00 0.0000000000000000e+00  0.0000000000000000e+00 0.0000000000000000e+00 0.0000000000000000e+00  -1.0275790768374642e-03 2.3469956884352959e-03 0.0000000000000000e+00  -2.9113540595836623e-03 2.7908956125449759e-03 0.0000000000000000e+00  -4.8445125242066907e-03 2.6962775981536641e-03 0.0000000000000000e+00  -6.6680065766493400e-03 2.5035523630287846e-03 0.0000000000000000e+00  -8.3307715382498412e-03 2.2486367185291871e-03 0.0000000000000000e+00  -9.7899779891856293e-03 1.9367043001611091e-03 0.0000000000000000e+00  -1.1008035961945068e-02 1.5721363822373614e-03 0.0000000000000000e+00  -1.1951108273556728e-02 1.1602006620409120e-03 0.0000000000000000e+00  -1.2589879077909628e-02 7.0715025749684115e-04 0.0000000000000000e+00  -1.2900044901780790e-02 2.2058772927578956e-04 0.0000000000000000e+00  -1.2863197605643983e-02 -2.9002276295255023e-04 0.0000000000000000e+00  -1.2468091962388638e-02 -8.1281843983225350e-04 0.0000000000000000e+00  -1.1712275150045684e-02 -1.3331420898531532e-03 0.0000000000000000e+00  -1.0604022899559784e-02 -1.8334962624475619e-03 0.0000000000000000e+00  -9.1640166188328084e-03 -2.2940435020223199e-03 0.0000000000000000e+00  -7.4271854321124658e-03 -2.6935967918949952e-03 0.0000000000000000e+00  -5.4432522134087108e-03 -3.0079157035437271e-03 0.0000000000000000e+00  -3.2858955674978335e-03 -3.1732371537540149e-03 0.0000000000000000e+00  -1.1589883069390223e-03 -2.6995832262473192e-03 0.0000000000000000e+00  0.0000000000000000e+00 0.0000000000000000e+00 0.0000000000000000e+00  0.0000000000000000e+00 0.0000000000000000e+00 0.0000000000000000e+00  -1.0822358069069180e-03 4.0963270230368280e-03 0.0000000000000000e+00  -3.0836083810717257e-03 4.8098248421993102e-03 0.0000000000000000e+00  -5.1311002395870164e-03 4.6424442030408280e-03 0.0000000000000000e+00  -7.0634016888953075e-03 4.3078232146579656e-03 0.0000000000000000e+00  -8.8264979024259820e-03 3.8653337756471813e-03 0.0000000000000000e+00  -1.0376954870593298e-02 3.3250677573990264e-03 0.0000000000000000e+00  -1.1675630453509679e-02 2.6956039525126638e-03 0.0000000000000000e+00  -1.2687454223284390e-02 1.9864519761457655e-03 0.0000000000000000e+00  -1.3381596919703217e-02 1.2084080866746336e-03 0.0000000000000000e+00  -1.3731735783170470e-02 3.7422748643848149e-04 0.0000000000000000e+00  -1.3716782631333942e-02 -5.0044781808338164e-04 0.0000000000000000e+00  -1.3322173992136425e-02 -1.3960442299240743e-03 0.0000000000000000e+00  -1.2541791192330804e-02 -2.2881897381203404e-03 0.0000000000000000e+00  -1.1380503181233651e-02 -3.1474129832603777e-03 0.0000000000000000e+00  -9.8566905049026522e-03 -3.9397827641257290e-03 0.0000000000000000e+00  -8.0050968819308684e-03 -4.6284806380916532e-03 0.0000000000000000e+00  -5.8775404253761307e-03 -5.1714403855971820e-03 0.0000000000000000e+00  -3.5530636659876669e-03 -5.4635397356897382e-03 0.0000000000000000e+00  -1.2545375220215781e-03 -4.6878188328389305e-03 0.0000000000000000e+00  0.0000000000000000e+00 0.0000000000000000e+00 0.0000000000000000e+00  0.0000000000000000e+00 0.0000000000000000e+00 0.0000000000000000e+00  -1.1537255436008165e-03 5.9454320312438639e-03 0.0000000000000000e+00  -3.2912578222809162e-03 6.9522740756607767e-03 0.0000000000000000e+00  -5.4796575047214528e-03 6.7085149537658784e-03 0.0000000000000000e+00  -7.5458504468023839e-03 6.2248457688186274e-03 0.0000000000000000e+00  -9.4336604713831703e-03 5.5861827130582308e-03 0.0000000000000000e+00  -1.1098656277182546e-02 4.8080050741597154e-03 0.0000000000000000e+00  -1.2500607788898450e-02 3.9030352619056699e-03 0.0000000000000000e+00  -1.3603381264570953e-02 2.8847319853758102e-03 0.0000000000000000e+00  -1.4374464620572798e-02 1.7678293741699288e-03 0.0000000000000000e+00  -1.4784847979853374e-02 5.6931106319438936e-04 0.0000000000000000e+00  -1.4809402434350258e-02 -6.9006734803424296e-04 0.0000000000000000e+00  -1.4428122164212815e-02 -1.9839288543267303e-03 0.0000000000000000e+00  -1.3628433293786466e-02 -3.2785400448021441e-03 0.0000000000000000e+00  -1.2408703562345186e-02 -4.5318309322038260e-03 0.0000000000000000e+00  -1.0782180906874312e-02 -5.6938813182654336e-03 0.0000000000000000e+00  -8.7816636764246649e-03 -6.7091079519887020e-03 0.0000000000000000e+00  -6.4614147610033762e-03 -7.5138157958142974e-03 0.0000000000000000e+00  -3.9102298259911933e-03 -7.9550740994281510e-03 0.0000000000000000e+00  -1.3802735758562416e-03 -6.8537598393203138e-03 0.0000000000000000e+00  0.0000000000000000e+00 0.0000000000000000e+00 0.0000000000000000e+00  0.0000000000000000e+00 0.0000000000000000e+00 0.0000000000000000e+00  -1.2533893510588263e-03 7.9394347090694251e-03 0.0000000000000000e+00  -3.5768911613681992e-03 9.2624662422013462e-03 0.0000000000000000e+00  -5.9560466205226458e-03 8.9361273024913378e-03 0.0000000000000000e+00  -8.2028154279682203e-03 8.2932808564764003e-03 0.0000000000000000e+00  -1.0258366584276290e-02 7.4468005335633835e-03 0.0000000000000000e+00  -1.2076830812348772e-02 6.4180576084465271e-03 0.0000000000000000e+00  -1.3617251552228897e-02 5.2240739924679924e-03 0.0000000000000000e+00  -1.4842787118488347e-02 3.8819427927406277e-03 0.0000000000000000e+00  -1.5719461348396409e-02 2.4093644959292011e-03 0.0000000000000000e+00  -1.6215253161221788e-02 8.2599674303093643e-04 0.0000000000000000e+00  -1.6299792391457322e-02 -8.4420504098735847e-04 0.0000000000000000e+00  -1.5945299685183052e-02 -2.5699028905183164e-03 0.0000000000000000e+00  -1.5129241347361403e-02 -4.3091123850474205e-03 0.0000000000000000e+00  -1.3839163198595425e-02 -6.0067537702949434e-03 0.0000000000000000e+00  -1.2078897729740516e-02 -7.5943257590140754e-03 0.0000000000000000e+00  -9.8764553522963424e-03 -8.9925624975950545e-03 0.0000000000000000e+00  -7.2885842920189367e-03 -1.0109151672529048e-02 0.0000000000000000e+00  -4.4183441418396080e-03 -1.0731673973989334e-02 0.0000000000000000e+00  -1.5600932472860682e-03 -9.2702906438131682e-03 0.0000000000000000e+00  0.0000000000000000e+00 0.0000000000000000e+00 0.0000000000000000e+00  0.0000000000000000e+00 0.0000000000000000e+00 0.0000000000000000e+00  -1.3836647127393107e-03 1.0125173251370927e-02 0.0000000000000000e+00  -3.9490786782188161e-03 1.1793389804512161e-02 0.0000000000000000e+00  -6.5739584184711652e-03 1.1376215759181059e-02 0.0000000000000000e+00  -9.0519162538997538e-03 1.0560198680249232e-02 0.0000000000000000e+00  -1.1320742686700868e-02 9.4897445952310932e-03 0.0000000000000000e+00  -1.3333321972567987e-02 8.1935288353793944e-03 0.0000000000000000e+00  -1.5048836860430235e-02 6.6934926227366362e-03 0.0000000000000000e+00  -1.6430891011384251e-02 5.0100534502122767e-03 0.0000000000000000e+00  -1.7445080098230734e-02 3.1625369790384164e-03 0.0000000000000000e+00  -1.8056761616471469e-02 1.1709054044729916e-03 0.0000000000000000e+00  -1.8229496003330702e-02 -9.4087873254346157e-04 0.0000000000000000e+00  -1.7925101950928318e-02 -3.1399512939925358e-03 0.0000000000000000e+00  -1.7106305268766220e-02 -5.3787199870368512e-03 0.0000000000000000e+00  -1.5743155863804887e-02 -7.5895765075440109e-03 0.0000000000000000e+00  -1.3822661242680168e-02 -9.6823939568824527e-03 0.0000000000000000e+00  -1.1362163708128930e-02 -1.1546898439064807e-02 0.0000000000000000e+00  -8.4190781067079376e-03 -1.3050731725805750e-02 0.0000000000000000e+00  -5.1157859143744237e-03 -1.3903719310672132e-02 0.0000000000000000e+00  -1.8077309522859704e-03 -1.2037296367685872e-02 0.0000000000000000e+00  0.0000000000000000e+00 0.0000000000000000e+00 0.0000000000000000e+00  0.0000000000000000e+00 0.0000000000000000e+00 0.0000000000000000e+00  -1.5483709276960310e-03 1.2556648459186326e-02 0.0000000000000000e+00  -4.4179237866875196e-03 1.4604961173112392e-02 0.0000000000000000e+00  -7.3487852617483930e-03 1.4083895817718210e-02 0.0000000000000000e+00  -1.0111676921775047e-02 1.3074652123781869e-02 0.0000000000000000e+00  -1.2640428479326919e-02 1.1758135790978822e-02 0.0000000000000000e+00  -1.4887546345722836e-02 1.0172599012391141e-02 0.0000000000000000e+00  -1.6814172765028862e-02 8.3461221449773419e-03 0.0000000000000000e+00  -1.8386733534804786e-02 6.3023397304087792e-03 0.0000000000000000e+00  -1.9572782682231643e-02 4.0605106806457852e-03 0.0000000000000000e+00  -2.0336778204869572e-02 1.6374740378333340e-03 0.0000000000000000e+00  -2.0636300051613838e-02 -9.4779589225638648e-04 0.0000000000000000e+00  -2.0420203533948304e-02 -3.6668021046598349e-03 0.0000000000000000e+00  -1.9630294350497523e-02 -6.4719506767238009e-03 0.0000000000000000e+00  -1.8209018831231577e-02 -9.2862370900346648e-03 0.0000000000000000e+00  -1.6113678094572894e-02 -1.1995461314431449e-02 0.0000000000000000e+00  -1.3339011761113113e-02 -1.4447755528117700e-02 0.0000000000000000e+00  -9.9373995255700644e-03 -1.6451928814404382e-02 0.0000000000000000e+00  -6.0569676885656914e-03 -1.7610821897735343e-02 0.0000000000000000e+00  -2.1424452190926032e-03 -1.5280966903568134e-02 0.0000000000000000e+00  0.0000000000000000e+00 0.0000000000000000e+00 0.0000000000000000e+00  0.0000000000000000e+00 0.0000000000000000e+00 0.0000000000000000e+00  -1.7533592280923271e-03 1.5295371342727323e-02 0.0000000000000000e+00  -4.9986656080957381e-03 1.7763802267418881e-02 0.0000000000000000e+00  -8.3027065065720048e-03 1.7118850196224038e-02 0.0000000000000000e+00  -1.1407708434058644e-02 1.5887730640081092e-02 0.0000000000000000e+00  -1.4243221008936602e-02 1.4294885672213957e-02 0.0000000000000000e+00  -1.6763117040236794e-02 1.2391937014253228e-02 0.0000000000000000e+00  -1.8933736843906666e-02 1.0215350746053602e-02 0.0000000000000000e+00  -2.0728484687759185e-02 7.7923020715297544e-03 0.0000000000000000e+00  -2.2121347299777213e-02 5.1400075142593775e-03 0.0000000000000000e+00  -2.3079673717371383e-02 2.2677489543532366e-03 0.0000000000000000e+00  -2.3557106268545895e-02 -8.1748044628727004e-04 0.0000000000000000e+00  -2.3488514219533133e-02 -4.1015204695291014e-03 0.0000000000000000e+00  -2.2787766267154754e-02 -7.5486812084866921e-03 0.0000000000000000e+00  -2.1354670210647287e-02 -1.1081359832071607e-02 0.0000000000000000e+00  -1.9094371122717974e-02 -1.4560594608405090e-02 0.0000000000000000e+00  -1.5955603915768984e-02 -1.7777872877543937e-02 0.0000000000000000e+00  -1.1972031592108511e-02 -2.0453406479818029e-02 0.0000000000000000e+00  -7.3252886205195187e-03 -2.2035806940676556e-02 0.0000000000000000e+00  -2.5937279604755581e-03 -1.9167990348081480e-02 0.0000000000000000e+00  0.0000000000000000e+00 0.0000000000000000e+00 0.0000000000000000e+00  0.0000000000000000e+00 0.0000000000000000e+00 0.0000000000000000e+00  -2.0078655224535680e-03 1.8414531723617237e-02 0.0000000000000000e+00  -5.7144390817657296e-03 2.1346784802402066e-02 0.0000000000000000e+00  -9.4683188566231664e-03 2.0546712845141552e-02 0.0000000000000000e+00  -1.2976307632238070e-02 1.9051833997693862e-02 0.0000000000000000e+00  -1.6163774405931735e-02 1.7140390485580886e-02 0.0000000000000000e+00  -1.8989129250566519e-02 1.4883391429949407e-02 0.0000000000000000e+00  -2.1429207230277896e-02 1.2329368412264469e-02 0.0000000000000000e+00  -2.3471049962871537e-02 9.5100528008159255e-03 0.0000000000000000e+00  -2.5102190244198887e-02 6.4388955287491990e-03 0.0000000000000000e+00  -2.6299563170449122e-02 3.1127397997697524e-03 0.0000000000000000e+00  -2.7019997921390107e-02 -4.8392195917056530e-04 0.0000000000000000e+00  -2.7186772196658396e-02 -4.3684414707609257e-03 0.0000000000000000e+00  -2.6678465106209231e-02 -8.5348469088122464e-03 0.0000000000000000e+00  -2.5332540046362418e-02 -1.2920377457933008e-02 0.0000000000000000e+00  -2.2966254555079908e-02 -1.7372002996429915e-02 0.0000000000000000e+00  -1.9437291991529458e-02 -2.1614836179982992e-02 0.0000000000000000e+00  -1.4725418534383247e-02 -2.5233986570791248e-02 0.0000000000000000e+00  -9.0517085530568055e-03 -2.7433539195124427e-02 0.0000000000000000e+00  -3.2062785994516228e-03 -2.3929981362724367e-02 0.0000000000000000e+00  0.0000000000000000e+00 0.0000000000000000e+00 0.0000000000000000e+00  0.0000000000000000e+00 0.0000000000000000e+00 0.0000000000000000e+00  -2.3267292907647960e-03 2.2005432755312845e-02 0.0000000000000000e+00  -6.6011436493919450e-03 2.5445458977568693e-02 0.0000000000000000e+00  -1.0894651478598933e-02 2.4440517105341075e-02 0.0000000000000000e+00  -1.4870011900653663e-02 2.2619350634140382e-02 0.0000000000000000e+00  -1.8449621739132369e-02 2.0329018562269433e-02 0.0000000000000000e+00  -2.1602068915150922e-02 1.7669042091130651e-02 0.0000000000000000e+00  -2.4323030708817511e-02 1.4705452132693732e-02 0.0000000000000000e+00  -2.6622862502545634e-02 1.1476597715910097e-02 0.0000000000000000e+00  -2.8512280032131555e-02 7.9913592092094501e-03 0.0000000000000000e+00  -2.9990590913941854e-02 4.2278713627125755e-03 0.0000000000000000e+00  -3.1032086639377593e-02 1.3611947377997725e-04 0.0000000000000000e+00  -3.1549859332023963e-02 -4.3442086514016535e-03 0.0000000000000000e+00  -3.1396598492555106e-02 -9.2613048731965877e-03 0.0000000000000000e+00  -3.0331250411382744e-02 -1.4635475540618776e-02 0.0000000000000000e+00  -2.8023705536166694e-02 -2.0350430211585665e-02 0.0000000000000000e+00  -2.4143240345451119e-02 -2.6043000186495427e-02 0.0000000000000000e+00  -1.8526728480253506e-02 -3.1057675691118308e-02 0.0000000000000000e+00  -1.1441728804154078e-02 -3.4181360934811687e-02 0.0000000000000000e+00  -4.0457179171003816e-03 -2.9890766683725260e-02 0.0000000000000000e+00  0.0000000000000000e+00 0.0000000000000000e+00 0.0000000000000000e+00  0.0000000000000000e+00 0.0000000000000000e+00 0.0000000000000000e+00  -2.7345440710495250e-03 2.6188131371980054e-02 0.0000000000000000e+00  -7.7160121009767629e-03 3.0172987444712182e-02 0.0000000000000000e+00  -1.2657131359259317e-02 2.8882408536185587e-02 0.0000000000000000e+00  -1.7166370888011758e-02 2.6639763168538073e-02 0.0000000000000000e+00  -2.1167284731098222e-02 2.3883085153417027e-02 0.0000000000000000e+00  -2.4648883297376342e-02 2.0753474958004312e-02 0.0000000000000000e+00  -2.7638515571163470e-02 1.7341444945576288e-02 0.0000000000000000e+00  -3.0182316325832539e-02 1.3694795259928887e-02 0.0000000000000000e+00  -3.2327453844085495e-02 9.8172715342602357e-03 0.0000000000000000e+00  -3.4117341488981025e-02 5.6638780263105473e-03 0.0000000000000000e+00  -3.5547683125105943e-02 1.1523529703418383e-03 0.0000000000000000e+00  -3.6554310223143434e-02 -3.8497157200075047e-03 0.0000000000000000e+00  -3.7032309163833932e-02 -9.5526268095478366e-03 0.0000000000000000e+00  -3.6579980825044420e-02 -1.6121531354577067e-02 0.0000000000000000e+00  -3.4676951732253249e-02 -2.3427092330355441e-02 0.0000000000000000e+00  -3.0634037780448892e-02 -3.1116825210589134e-02 0.0000000000000000e+00  -2.3927297138226316e-02 -3.8237350711050958e-02 0.0000000000000000e+00  -1.4838462166007144e-02 -4.2814397626743418e-02 0.0000000000000000e+00  -5.2234841958183446e-03 -3.7519740494837993e-02 0.0000000000000000e+00  0.0000000000000000e+00 0.0000000000000000e+00 0.0000000000000000e+00  0.0000000000000000e+00 0.0000000000000000e+00 0.0000000000000000e+00  -3.2735599611442845e-03 3.1129661415707707e-02 0.0000000000000000e+00  -9.1529450979613795e-03 3.5674589036364890e-02 0.0000000000000000e+00  -1.4874244919946301e-02 3.3964737793365785e-02 0.0000000000000000e+00  -1.9981430751607920e-02 3.1153547150676125e-02 0.0000000000000000e+00  -2.4410787842345880e-02 2.7802924690181863e-02 0.0000000000000000e+00  -2.8190972487614225e-02 2.4112651842086375e-02 0.0000000000000000e+00  -3.1400260045057971e-02 2.0204362845664417e-02 0.0000000000000000e+00  -3.4135866494820824e-02 1.6136532403321129e-02 0.0000000000000000e+00  -3.6499418508788191e-02 1.1907349475107855e-02 0.0000000000000000e+00  -3.8594335329448441e-02 7.4551713091344412e-03 0.0000000000000000e+00  -4.0426103930374394e-02 2.6686541171302720e-03 0.0000000000000000e+00  -4.2150812978559153e-02 -2.7231959958957273e-03 0.0000000000000000e+00  -4.3531204155347891e-02 -9.0043540187468157e-03 0.0000000000000000e+00  -4.4122244329206896e-02 -1.6359023311774332e-02 0.0000000000000000e+00  -4.3491209273537168e-02 -2.5400550494301743e-02 0.0000000000000000e+00  -3.9907957929185348e-02 -3.6278528025973221e-02 0.0000000000000000e+00  -3.2029385260654381e-02 -4.7022456543513558e-02 0.0000000000000000e+00  -1.9877039416759893e-02 -5.4246774788734756e-02 0.0000000000000000e+00  -6.8877795470099132e-03 -4.7647485207307612e-02 0.0000000000000000e+00  0.0000000000000000e+00 0.0000000000000000e+00 0.0000000000000000e+00  0.0000000000000000e+00 0.0000000000000000e+00 0.0000000000000000e+00  -4.0195228436088644e-03 3.7076047544156256e-02 0.0000000000000000e+00  -1.1070667943180196e-02 4.2143050250754287e-02 0.0000000000000000e+00  -1.7735630555237542e-02 3.9788044103383921e-02 0.0000000000000000e+00  -2.3489588552193311e-02 3.6179093871187132e-02 0.0000000000000000e+00  -2.8311809704169362e-02 3.2050245467398514e-02 0.0000000000000000e+00  -3.2307449296730392e-0