<?xml version="1.0"?>
<VTKFile type="UnstructuredGrid"  version="0.1"  >
<UnstructuredGrid>
<Piece  NumberOfPoints="441" NumberOfCells="800">
<Points>
<DataArray  type="Float64"  NumberOfComponents="3"  format="ascii">0 0 0  0.05 0 0  0.1 0 0  0.15 0 0  0.2 0 0  0.25 0 0  0.3 0 0  0.35 0 0  0.4 0 0  0.45 0 0  0.5 0 0  0.55 0 0  0.6 0 0  0.65 0 0  0.7 0 0  0.75 0 0  0.8 0 0  0.85 0 0  0.9 0 0  0.95 0 0  1 0 0  0 0.05 0  0.05 0.05 0  0.1 0.05 0  0.15 0.05 0  0.2 0.05 0  0.25 0.05 0  0.3 0.05 0  0.35 0.05 0  0.4 0.05 0  0.45 0.05 0  0.5 0.05 0  0.55 0.05 0  0.6 0.05 0  0.65 0.05 0  0.7 0.05 0  0.75 0.05 0  0.8 0.05 0  0.85 0.05 0  0.9 0.05 0  0.95 0.05 0  1 0.05 0  0 0.1 0  0.05 0.1 0  0.1 0.1 0  0.15 0.1 0  0.2 0.1 0  0.25 0.1 0  0.3 0.1 0  0.35 0.1 0  0.4 0.1 0  0.45 0.1 0  0.5 0.1 0  0.55 0.1 0  0.6 0.1 0  0.65 0.1 0  0.7 0.1 0  0.75 0.1 0  0.8 0.1 0  0.85 0.1 0  0.9 0.1 0  0.95 0.1 0  1 0.1 0  0 0.15 0  0.05 0.15 0  0.1 0.15 0  0.15 0.15 0  0.2 0.15 0  0.25 0.15 0  0.3 0.15 0  0.35 0.15 0  0.4 0.15 0  0.45 0.15 0  0.5 0.15 0  0.55 0.15 0  0.6 0.15 0  0.65 0.15 0  0.7 0.15 0  0.75 0.15 0  0.8 0.15 0  0.85 0.15 0  0.9 0.15 0  0.95 0.15 0  1 0.15 0  0 0.2 0  0.05 0.2 0  0.1 0.2 0  0.15 0.2 0  0.2 0.2 0  0.25 0.2 0  0.3 0.2 0  0.35 0.2 0  0.4 0.2 0  0.45 0.2 0  0.5 0.2 0  0.55 0.2 0  0.6 0.2 0  0.65 0.2 0  0.7 0.2 0  0.75 0.2 0  0.8 0.2 0  0.85 0.2 0  0.9 0.2 0  0.95 0.2 0  1 0.2 0  0 0.25 0  0.05 0.25 0  0.1 0.25 0  0.15 0.25 0  0.2 0.25 0  0.25 0.25 0  0.3 0.25 0  0.35 0.25 0  0.4 0.25 0  0.45 0.25 0  0.5 0.25 0  0.55 0.25 0  0.6 0.25 0  0.65 0.25 0  0.7 0.25 0  0.75 0.25 0  0.8 0.25 0  0.85 0.25 0  0.9 0.25 0  0.95 0.25 0  1 0.25 0  0 0.3 0  0.05 0.3 0  0.1 0.3 0  0.15 0.3 0  0.2 0.3 0  0.25 0.3 0  0.3 0.3 0  0.35 0.3 0  0.4 0.3 0  0.45 0.3 0  0.5 0.3 0  0.55 0.3 0  0.6 0.3 0  0.65 0.3 0  0.7 0.3 0  0.75 0.3 0  0.8 0.3 0  0.85 0.3 0  0.9 0.3 0  0.95 0.3 0  1 0.3 0  0 0.35 0  0.05 0.35 0  0.1 0.35 0  0.15 0.35 0  0.2 0.35 0  0.25 0.35 0  0.3 0.35 0  0.35 0.35 0  0.4 0.35 0  0.45 0.35 0  0.5 0.35 0  0.55 0.35 0  0.6 0.35 0  0.65 0.35 0  0.7 0.35 0  0.75 0.35 0  0.8 0.35 0  0.85 0.35 0  0.9 0.35 0  0.95 0.35 0  1 0.35 0  0 0.4 0  0.05 0.4 0  0.1 0.4 0  0.15 0.4 0  0.2 0.4 0  0.25 0.4 0  0.3 0.4 0  0.35 0.4 0  0.4 0.4 0  0.45 0.4 0  0.5 0.4 0  0.55 0.4 0  0.6 0.4 0  0.65 0.4 0  0.7 0.4 0  0.75 0.4 0  0.8 0.4 0  0.85 0.4 0  0.9 0.4 0  0.95 0.4 0  1 0.4 0  0 0.45 0  0.05 0.45 0  0.1 0.45 0  0.15 0.45 0  0.2 0.45 0  0.25 0.45 0  0.3 0.45 0  0.35 0.45 0  0.4 0.45 0  0.45 0.45 0  0.5 0.45 0  0.55 0.45 0  0.6 0.45 0  0.65 0.45 0  0.7 0.45 0  0.75 0.45 0  0.8 0.45 0  0.85 0.45 0  0.9 0.45 0  0.95 0.45 0  1 0.45 0  0 0.5 0  0.05 0.5 0  0.1 0.5 0  0.15 0.5 0  0.2 0.5 0  0.25 0.5 0  0.3 0.5 0  0.35 0.5 0  0.4 0.5 0  0.45 0.5 0  0.5 0.5 0  0.55 0.5 0  0.6 0.5 0  0.65 0.5 0  0.7 0.5 0  0.75 0.5 0  0.8 0.5 0  0.85 0.5 0  0.9 0.5 0  0.95 0.5 0  1 0.5 0  0 0.55 0  0.05 0.55 0  0.1 0.55 0  0.15 0.55 0  0.2 0.55 0  0.25 0.55 0  0.3 0.55 0  0.35 0.55 0  0.4 0.55 0  0.45 0.55 0  0.5 0.55 0  0.55 0.55 0  0.6 0.55 0  0.65 0.55 0  0.7 0.55 0  0.75 0.55 0  0.8 0.55 0  0.85 0.55 0  0.9 0.55 0  0.95 0.55 0  1 0.55 0  0 0.6 0  0.05 0.6 0  0.1 0.6 0  0.15 0.6 0  0.2 0.6 0  0.25 0.6 0  0.3 0.6 0  0.35 0.6 0  0.4 0.6 0  0.45 0.6 0  0.5 0.6 0  0.55 0.6 0  0.6 0.6 0  0.65 0.6 0  0.7 0.6 0  0.75 0.6 0  0.8 0.6 0  0.85 0.6 0  0.9 0.6 0  0.95 0.6 0  1 0.6 0  0 0.65 0  0.05 0.65 0  0.1 0.65 0  0.15 0.65 0  0.2 0.65 0  0.25 0.65 0  0.3 0.65 0  0.35 0.65 0  0.4 0.65 0  0.45 0.65 0  0.5 0.65 0  0.55 0.65 0  0.6 0.65 0  0.65 0.65 0  0.7 0.65 0  0.75 0.65 0  0.8 0.65 0  0.85 0.65 0  0.9 0.65 0  0.95 0.65 0  1 0.65 0  0 0.7 0  0.05 0.7 0  0.1 0.7 0  0.15 0.7 0  0.2 0.7 0  0.25 0.7 0  0.3 0.7 0  0.35 0.7 0  0.4 0.7 0  0.45 0.7 0  0.5 0.7 0  0.55 0.7 0  0.6 0.7 0  0.65 0.7 0  0.7 0.7 0  0.75 0.7 0  0.8 0.7 0  0.85 0.7 0  0.9 0.7 0  0.95 0.7 0  1 0.7 0  0 0.75 0  0.05 0.75 0  0.1 0.75 0  0.15 0.75 0  0.2 0.75 0  0.25 0.75 0  0.3 0.75 0  0.35 0.75 0  0.4 0.75 0  0.45 0.75 0  0.5 0.75 0  0.55 0.75 0  0.6 0.75 0  0.65 0.75 0  0.7 0.75 0  0.75 0.75 0  0.8 0.75 0  0.85 0.75 0  0.9 0.75 0  0.95 0.75 0  1 0.75 0  0 0.8 0  0.05 0.8 0  0.1 0.8 0  0.15 0.8 0  0.2 0.8 0  0.25 0.8 0  0.3 0.8 0  0.35 0.8 0  0.4 0.8 0  0.45 0.8 0  0.5 0.8 0  0.55 0.8 0  0.6 0.8 0  0.65 0.8 0  0.7 0.8 0  0.75 0.8 0  0.8 0.8 0  0.85 0.8 0  0.9 0.8 0  0.95 0.8 0  1 0.8 0  0 0.85 0  0.05 0.85 0  0.1 0.85 0  0.15 0.85 0  0.2 0.85 0  0.25 0.85 0  0.3 0.85 0  0.35 0.85 0  0.4 0.85 0  0.45 0.85 0  0.5 0.85 0  0.55 0.85 0  0.6 0.85 0  0.65 0.85 0  0.7 0.85 0  0.75 0.85 0  0.8 0.85 0  0.85 0.85 0  0.9 0.85 0  0.95 0.85 0  1 0.85 0  0 0.9 0  0.05 0.9 0  0.1 0.9 0  0.15 0.9 0  0.2 0.9 0  0.25 0.9 0  0.3 0.9 0  0.35 0.9 0  0.4 0.9 0  0.45 0.9 0  0.5 0.9 0  0.55 0.9 0  0.6 0.9 0  0.65 0.9 0  0.7 0.9 0  0.75 0.9 0  0.8 0.9 0  0.85 0.9 0  0.9 0.9 0  0.95 0.9 0  1 0.9 0  0 0.95 0  0.05 0.95 0  0.1 0.95 0  0.15 0.95 0  0.2 0.95 0  0.25 0.95 0  0.3 0.95 0  0.35 0.95 0  0.4 0.95 0  0.45 0.95 0  0.5 0.95 0  0.55 0.95 0  0.6 0.95 0  0.65 0.95 0  0.7 0.95 0  0.75 0.95 0  0.8 0.95 0  0.85 0.95 0  0.9 0.95 0  0.95 0.95 0  1 0.95 0  0 1 0  0.05 1 0  0.1 1 0  0.15 1 0  0.2 1 0  0.25 1 0  0.3 1 0  0.35 1 0  0.4 1 0  0.45 1 0  0.5 1 0  0.55 1 0  0.6 1 0  0.65 1 0  0.7 1 0  0.75 1 0  0.8 1 0  0.85 1 0  0.9 1 0  0.95 1 0  1 1 0  </DataArray>
</Points>
<Cells>
[...]
<PointData  Vectors="f_137"> 
<DataArray  type="Float64"  Name="f_137"  NumberOfComponents="3" format="ascii">0.0000000000000000e+00 0.0000000000000000e+00 0.0000000000000000e+00  0.0000000000000000e+00 0.0000000000000000e+00 0.0000000000000000e+00  0.0000000000000000e+00 0.0000000000000000e+00 0.0000000000000000e+00  0.0000000000000000e+00 0.0000000000000000e+00 0.0000000000000000e+00  0.0000000000000000e+00 0.0000000000000000e+00 0.0000000000000000e+00  0.0000000000000000e+00 0.0000000000000000e+00 0.0000000000000000e+00  0.0000000000000000e+00 0.0000000000000000e+00 0.0000000000000000e+00  0.0000000000000000e+00 0.0000000000000000e+00 0.0000000000000000e+00  0.0000000000000000e+00 0.0000000000000000e+00 0.0000000000000000e+00  0.0000000000000000e+00 0.0000000000000000e+00 0.0000000000000000e+00  0.0000000000000000e+00 0.0000000000000000e+00 0.0000000000000000e+00  0.0000000000000000e+00 0.0000000000000000e+00 0.0000000000000000e+00  0.0000000000000000e+00 0.0000000000000000e+00 0.0000000000000000e+00  0.0000000000000000e+00 0.0000000000000000e+00 0.0000000000000000e+00  0.0000000000000000e+00 0.0000000000000000e+00 0.0000000000000000e+00  0.0000000000000000e+00 0.0000000000000000e+00 0.0000000000000000e+00  0.0000000000000000e+00 0.0000000000000000e+00 0.0000000000000000e+00  0.0000000000000000e+00 0.0000000000000000e+00 0.0000000000000000e+00  0.0000000000000000e+00 0.0000000000000000e+00 0.0000000000000000e+00  0.0000000000000000e+00 0.0000000000000000e+00 0.0000000000000000e+00  0.0000000000000000e+00 0.0000000000000000e+00 0.0000000000000000e+00  0.0000000000000000e+00 0.0000000000000000e+00 0.0000000000000000e+00  -6.0363712026523643e-04 5.9486958512148646e-04 0.0000000000000000e+00  -1.3115465590393619e-03 5.6518580699101574e-04 0.0000000000000000e+00  -1.9855644544757843e-03 5.2722566047826581e-04 0.0000000000000000e+00  -2.6071794370297798e-03 4.7689202993584458e-04 0.0000000000000000e+00  -3.1607161015597806e-03 4.1454052577730545e-04 0.0000000000000000e+00  -3.6323780760065976e-03 3.4199817893370866e-04 0.0000000000000000e+00  -4.0107219800921837e-03 2.6124059346803018e-04 0.0000000000000000e+00  -4.2867886984861263e-03 1.7430490749939859e-04 0.0000000000000000e+00  -4.4541340002482686e-03 8.3250305300830682e-05 0.0000000000000000e+00  -4.5088315562618348e-03 -9.8612970760293860e-06 0.0000000000000000e+00  -4.4494686848477339e-03 -1.0296005839321105e-04 0.0000000000000000e+00  -4.2771583058076792e-03 -1.9395018590303577e-04 0.0000000000000000e+00  -3.9955754991343115e-03 -2.8069417091011717e-04 0.0000000000000000e+00  -3.6110069398008105e-03 -3.6101371748570603e-04 0.0000000000000000e+00  -3.1323836648086069e-03 -4.3273824752847483e-04 0.0000000000000000e+00  -2.5712618105656086e-03 -4.9395598785864994e-04 0.0000000000000000e+00  -1.9417899257375539e-03 -5.4389096639461537e-04 0.0000000000000000e+00  -1.2608776373749730e-03 -5.8092643670707670e-04 0.0000000000000000e+00  -5.4543695854950068e-04 -5.4335115684415037e-04 0.0000000000000000e+00  0.0000000000000000e+00 0.0000000000000000e+00 0.0000000000000000e+00  0.0000000000000000e+00 0.0000000000000000e+00 0.0000000000000000e+00  -6.1817963385022519e-04 1.3262941023063537e-03 0.0000000000000000e+00  -1.3760158070507430e-03 1.2969881469236399e-03 0.0000000000000000e+00  -2.1016843932829673e-03 1.2113143851517178e-03 0.0000000000000000e+00  -2.7720038730676680e-03 1.0985616263386624e-03 0.0000000000000000e+00  -3.3694804771027026e-03 9.5827726004742988e-04 0.0000000000000000e+00  -3.8793981116906780e-03 7.9450254688727742e-04 0.0000000000000000e+00  -4.2895677841594312e-03 6.1174500829829003e-04 0.0000000000000000e+00  -4.5904595934284018e-03 4.1464618416531181e-04 0.0000000000000000e+00  -4.7752098734856144e-03 2.0787093162304680e-04 0.0000000000000000e+00  -4.8395790961789633e-03 -3.9349337418452666e-06 0.0000000000000000e+00  -4.7819165157520268e-03 -2.1612434543615258e-04 0.0000000000000000e+00  -4.6031654456999763e-03 -4.2399484581827454e-04 0.0000000000000000e+00  -4.3069209646712158e-03 -6.2273695774342584e-04 0.0000000000000000e+00  -3.8995268574280257e-03 -8.0742090780378862e-04 0.0000000000000000e+00  -3.3901738793103518e-03 -9.7307496989125139e-04 0.0000000000000000e+00  -2.7909382674295362e-03 -1.1150570279140732e-03 0.0000000000000000e+00  -2.1167278190269271e-03 -1.2304207461155865e-03 0.0000000000000000e+00  -1.3856410655778576e-03 -1.3170470220048322e-03 0.0000000000000000e+00  -6.1939134790945098e-04 -1.2785979824306314e-03 0.0000000000000000e+00  0.0000000000000000e+00 0.0000000000000000e+00 0.0000000000000000e+00  0.0000000000000000e+00 0.0000000000000000e+00 0.0000000000000000e+00  -6.5605205762871220e-04 2.0934091278328984e-03 0.0000000000000000e+00  -1.4552850222514925e-03 2.0657951959377214e-03 0.0000000000000000e+00  -2.2206388348053941e-03 1.9292004086783766e-03 0.0000000000000000e+00  -2.9269201618966089e-03 1.7492507138133153e-03 0.0000000000000000e+00  -3.5555063095247734e-03 1.5261196484539425e-03 0.0000000000000000e+00  -4.0911385979586941e-03 1.2658505584595260e-03 0.0000000000000000e+00  -4.5214144368068213e-03 9.7570171370278311e-04 0.0000000000000000e+00  -4.8367745576767740e-03 6.6306204068615092e-04 0.0000000000000000e+00  -5.0304141235260240e-03 3.3525484542804728e-04 0.0000000000000000e+00  -5.0981426133705253e-03 -5.0369957632108879e-07 0.0000000000000000e+00  -5.0382799196945528e-03 -3.3703770747953854e-04 0.0000000000000000e+00  -4.8516397470932358e-03 -6.6708240588871060e-04 0.0000000000000000e+00  -4.5416184937426118e-03 -9.8315699687968427e-04 0.0000000000000000e+00  -4.1143729069390350e-03 -1.2775046686769559e-03 0.0000000000000000e+00  -3.5790335422928592e-03 -1.5421827710556594e-03 0.0000000000000000e+00  -2.9478660299127558e-03 -1.7695786260962098e-03 0.0000000000000000e+00  -2.2363398251802080e-03 -1.9544092343568753e-03 0.0000000000000000e+00  -1.4636767285147586e-03 -2.0935871353752007e-03 0.0000000000000000e+00  -6.5248976523996766e-04 -2.0494753697339182e-03 0.0000000000000000e+00  0.0000000000000000e+00 0.0000000000000000e+00 0.0000000000000000e+00  0.0000000000000000e+00 0.0000000000000000e+00 0.0000000000000000e+00  -7.1328489929674277e-04 2.9165508652348013e-03 0.0000000000000000e+00  -1.5785714585730946e-03 2.8897628159510816e-03 0.0000000000000000e+00  -2.4059525291630578e-03 2.6977105459637866e-03 0.0000000000000000e+00  -3.1678544296836232e-03 2.4445737533172925e-03 0.0000000000000000e+00  -3.8442799479017362e-03 2.1316381309477378e-03 0.0000000000000000e+00  -4.4192368683943816e-03 1.7675171091607119e-03 0.0000000000000000e+00  -4.8800650451400179e-03 1.3624983416866696e-03 0.0000000000000000e+00  -5.2172805502184137e-03 9.2691094266556223e-04 0.0000000000000000e+00  -5.4242835126597231e-03 4.7078475673836850e-04 0.0000000000000000e+00  -5.4970442227848517e-03 3.8337967230823245e-06 0.0000000000000000e+00  -5.4338795433242493e-03 -4.6437534557967945e-04 0.0000000000000000e+00  -5.2353947032023748e-03 -9.2415102967695730e-04 0.0000000000000000e+00  -4.9046195831197442e-03 -1.3654031263460108e-03 0.0000000000000000e+00  -4.4473189171354011e-03 -1.7774756083737374e-03 0.0000000000000000e+00  -3.8724028988318562e-03 -2.1492139812854761e-03 0.0000000000000000e+00  -3.1923127346337433e-03 -2.4696389189741855e-03 0.0000000000000000e+00  -2.4233000026339779e-03 -2.7306538706228711e-03 0.0000000000000000e+00  -1.5861414363746598e-03 -2.9276287419135196e-03 0.0000000000000000e+00  -7.0516444939804372e-04 -2.8776365115327283e-03 0.0000000000000000e+00  0.0000000000000000e+00 0.0000000000000000e+00 0.0000000000000000e+00  0.0000000000000000e+00 0.0000000000000000e+00 0.0000000000000000e+00  -7.9084693277285353e-04 3.8188139441227799e-03 0.0000000000000000e+00  -1.7464086669435198e-03 3.7908628346521004e-03 0.0000000000000000e+00  -2.6586035049056566e-03 3.5362895980121582e-03 0.0000000000000000e+00  -3.4959666762812958e-03 3.2011553773588640e-03 0.0000000000000000e+00  -4.2367305434678941e-03 2.7884653329672965e-03 0.0000000000000000e+00  -4.8640669005848890e-03 2.3100724204850607e-03 0.0000000000000000e+00  -5.3652397032235878e-03 1.7798288883179533e-03 0.0000000000000000e+00  -5.7311510592985768e-03 1.2112671552235472e-03 0.0000000000000000e+00  -5.9557332468726356e-03 6.1714156846434968e-04 0.0000000000000000e+00  -6.0353488250871395e-03 9.4838145525298462e-06 0.0000000000000000e+00  -5.9683719421433443e-03 -6.0003913817965502e-04 0.0000000000000000e+00  -5.7550585979068434e-03 -1.1995996709066065e-03 0.0000000000000000e+00  -5.3977507130095062e-03 -1.7766751370685927e-03 0.0000000000000000e+00  -4.9013913874431424e-03 -2.3176705708429562e-03 0.0000000000000000e+00  -4.2742531172022527e-03 -2.8078951103223493e-03 0.0000000000000000e+00  -3.5286995954475504e-03 -3.2323905503135841e-03 0.0000000000000000e+00  -2.6818274382561097e-03 -3.5794688028435713e-03 0.0000000000000000e+00  -1.7564993501278906e-03 -3.8421718747167115e-03 0.0000000000000000e+00  -7.7979769213868853e-04 -3.7863993350573362e-03 0.0000000000000000e+00  0.0000000000000000e+00 0.0000000000000000e+00 0.0000000000000000e+00  0.0000000000000000e+00 0.0000000000000000e+00 0.0000000000000000e+00  -8.9200714224720620e-04 4.8261600213034325e-03 0.0000000000000000e+00  -1.9654228985101860e-03 4.7942202212347415e-03 0.0000000000000000e+00  -2.9873746989459485e-03 4.4669631659357278e-03 0.0000000000000000e+00  -3.9213665451321555e-03 4.0373560875591203e-03 0.0000000000000000e+00  -4.7433484818421214e-03 3.5111078055517003e-03 0.0000000000000000e+00  -5.4357779902642579e-03 2.9043758584620673e-03 0.0000000000000000e+00  -5.9863214392326695e-03 2.2353315224290602e-03 0.0000000000000000e+00  -6.3869238857455629e-03 1.5210551439351300e-03 0.0000000000000000e+00  -6.6326770266688139e-03 7.7696230934627827e-04 0.0000000000000000e+00  -6.7207719029162864e-03 1.7025058621582832e-05 0.0000000000000000e+00  -6.6497769695661631e-03 -7.4554160552122849e-04 0.0000000000000000e+00  -6.4193910607682125e-03 -1.4973356055495244e-03 0.0000000000000000e+00  -6.0307371281304572e-03 -2.2237969049037393e-03 0.0000000000000000e+00  -5.4871784627162730e-03 -2.9084545449891883e-03 0.0000000000000000e+00  -4.7955375515953899e-03 -3.5326864841097533e-03 0.0000000000000000e+00  -3.9674715464840474e-03 -4.0766703413011307e-03 0.0000000000000000e+00  -3.0207406211753530e-03 -4.5239102846517804e-03 0.0000000000000000e+00  -1.9808060573307182e-03 -4.8638101664880825e-03 0.0000000000000000e+00  -8.7866171733230899e-04 -4.8030270712260108e-03 0.0000000000000000e+00  0.0000000000000000e+00 0.0000000000000000e+00 0.0000000000000000e+00  0.0000000000000000e+00 0.0000000000000000e+00 0.0000000000000000e+00  -1.0215032577936898e-03 5.9690923917947733e-03 0.0000000000000000e+00  -2.2453203090000494e-03 5.9287872641218490e-03 0.0000000000000000e+00  -3.4057455237726368e-03 5.5144261615888510e-03 0.0000000000000000e+00  -4.4596658896303926e-03 4.9728982435853783e-03 0.0000000000000000e+00  -5.3803784016872597e-03 4.3143139166236678e-03 0.0000000000000000e+00  -6.1500832837400252e-03 3.5607457400928903e-03 0.0000000000000000e+00  -6.7578512905657343e-03 2.7357677637952142e-03 0.0000000000000000e+00  -7.1978673922762108e-03 1.8604032092436240e-03 0.0000000000000000e+00  -7.4674713771281150e-03 9.5248973954578371e-04 0.0000000000000000e+00  -7.5654296048972697e-03 2.7222674105387068e-05 0.0000000000000000e+00  -7.4907630100587508e-03 -9.0161806740767490e-04 0.0000000000000000e+00  -7.2423170102550866e-03 -1.8200664779023223e-03 0.0000000000000000e+00  -6.8191610310334213e-03 -2.7123085327849261e-03 0.0000000000000000e+00  -6.2218197789039430e-03 -3.5592955222319392e-03 0.0000000000000000e+00  -5.4542182318185039e-03 -4.3380621433051613e-03 0.0000000000000000e+00  -4.5260344336618078e-03 -5.0226910384862638e-03 0.0000000000000000e+00  -3.4550443904357736e-03 -5.5900016493113866e-03 0.0000000000000000e+00  -2.2697286598828623e-03 -6.0235948802496711e-03 0.0000000000000000e+00  -1.0064902231119784e-03 -5.9599753761361320e-03 0.0000000000000000e+00  0.0000000000000000e+00 0.0000000000000000e+00 0.0000000000000000e+00  0.0000000000000000e+00 0.0000000000000000e+00 0.0000000000000000e+00  -1.1862400740843290e-03 7.2846579355131738e-03 0.0000000000000000e+00  -2.6000940860366681e-03 7.2289052183614278e-03 0.0000000000000000e+00  -3.9327917429598366e-03 6.7067749350078615e-03 0.0000000000000000e+00  -5.1324691895381861e-03 6.0288456579309733e-03 0.0000000000000000e+00  -6.1695845323356943e-03 5.2124409290535247e-03 0.0000000000000000e+00  -7.0272011937411623e-03 4.2880089623689192e-03 0.0000000000000000e+00  -7.6976620728291239e-03 3.2860231525703529e-03 0.0000000000000000e+00  -8.1794472589665768e-03 2.2318327592569620e-03 0.0000000000000000e+00  -8.4739272140618230e-03 1.1451152518978981e-03 0.0000000000000000e+00  -8.5826457378921934e-03 4.1015950088287869e-05 0.0000000000000000e+00  -8.5055202817738967e-03 -1.0677744316328897e-03 0.0000000000000000e+00  -8.2401440227513178e-03 -2.1684412677564014e-03 0.0000000000000000e+00  -7.7822849351290519e-03 -3.2453508144458304e-03 0.0000000000000000e+00  -7.1276362218287538e-03 -4.2776468117916890e-03 0.0000000000000000e+00  -6.2747727141544496e-03 -5.2377317498121662e-03 0.0000000000000000e+00  -5.2290116032458703e-03 -6.0919636103556347e-03 0.0000000000000000e+00  -4.0065980144130984e-03 -6.8076193640006733e-03 0.0000000000000000e+00  -2.6391680798239954e-03 -7.3589108791049700e-03 0.0000000000000000e+00  -1.1705300527879493e-03 -7.2971963995558933e-03 0.0000000000000000e+00  0.0000000000000000e+00 0.0000000000000000e+00 0.0000000000000000e+00  0.0000000000000000e+00 0.0000000000000000e+00 0.0000000000000000e+00  -1.3965026930040697e-03 8.8194418563425532e-03 0.0000000000000000e+00  -3.0502725340794648e-03 8.7364803143494870e-03 0.0000000000000000e+00  -4.5958542471555225e-03 8.0763984016053707e-03 0.0000000000000000e+00  -5.9697509890101041e-03 7.2272415713456667e-03 0.0000000000000000e+00  -7.1398906398079552e-03 6.2182081782798789e-03 0.0000000000000000e+00  -8.0925396615564790e-03 5.0918367409191808e-03 0.0000000000000000e+00  -8.8266405591955754e-03 3.8874745553556605e-03 0.0000000000000000e+00  -9.3483481840924507e-03 2.6349886105193694e-03 0.0000000000000000e+00  -9.6658441232873125e-03 1.3546815134977267e-03 0.0000000000000000e+00  -9.7852763642686195e-03 5.9504113480268569e-05 0.0000000000000000e+00  -9.7081699755487798e-03 -1.2415839363038163e-03 0.0000000000000000e+00  -9.4303748212262485e-03 -2.5396775637872063e-03 0.0000000000000000e+00  -8.9426041984534670e-03 -3.8217923884957638e-03 0.0000000000000000e+00  -8.2327203947766704e-03 -5.0669192562869444e-03 0.0000000000000000e+00  -7.2899587542615031e-03 -6.2429962157835184e-03 0.0000000000000000e+00  -6.1109980807048138e-03 -7.3066877444717378e-03 0.0000000000000000e+00  -4.7072552402094483e-03 -8.2114671598987696e-03 0.0000000000000000e+00  -3.1128675790139189e-03 -8.9161781734805271e-03 0.0000000000000000e+00  -1.3817036917143015e-03 -8.8658036528425511e-03 0.0000000000000000e+00  0.0000000000000000e+00 0.0000000000000000e+00 0.0000000000000000e+00  0.0000000000000000e+00 0.0000000000000000e+00 0.0000000000000000e+00  -1.6680536445014575e-03 1.0634285165272785e-02 0.0000000000000000e+00  -3.6267308679996048e-03 1.0504153594732649e-02 0.0000000000000000e+00  -5.4349352661260475e-03 9.6608897841379722e-03 0.0000000000000000e+00  -7.0136831361999868e-03 8.5899918919182909e-03 0.0000000000000000e+00  -8.3298957794575249e-03 7.3402759675586220e-03 0.0000000000000000e+00  -9.3776830377848008e-03 5.9718690292303736e-03 0.0000000000000000e+00  -1.0168353215459182e-02 4.5353498032544449e-03 0.0000000000000000e+00  -1.0721093751974033e-02 3.0646692814168199e-03 0.0000000000000000e+00  -1.1055008769151645e-02 1.5784058056819833e-03 0.0000000000000000e+00  -1.1183441408091957e-02 8.3866722839546031e-05 0.0000000000000000e+00  -1.1110577008890600e-02 -1.4177149724607253e-03 0.0000000000000000e+00  -1.0830008228865739e-02 -2.9255336103539858e-03 0.0000000000000000e+00  -1.0325142217817255e-02 -4.4332722205402512e-03 0.0000000000000000e+00  -9.5717889556575335e-03 -5.9229985458964431e-03 0.0000000000000000e+00  -8.5436361192370823e-03 -7.3595488481175628e-03 0.0000000000000000e+00  -7.2212644620254385e-03 -8.6880044815424457e-03 0.0000000000000000e+00  -5.6045201500108882e-03 -9.8419526091084262e-03 0.0000000000000000e+00  -3.7273227672182259e-03 -1.0754868500658285e-02 0.0000000000000000e+00  -1.6569761041953276e-03 -1.0734012947476794e-02 0.0000000000000000e+00  0.0000000000000000e+00 0.0000000000000000e+00 0.0000000000000000e+00  0.0000000000000000e+00 0.0000000000000000e+00 0.0000000000000000e+00  -2.0259240574385224e-03 1.2811976897856797e-02 0.0000000000000000e+00  -4.3773575039315581e-03 1.2600032585921571e-02 0.0000000000000000e+00  -6.5100346932659460e-03 1.1503722946412989e-02 0.0000000000000000e+00  -8.3245833472537761e-03 1.0136196345010642e-02 0.0000000000000000e+00  -9.7913461968817325e-03 8.5787536261540225e-03 0.0000000000000000e+00  -1.0921313196936620e-02 6.9169195984885362e-03 0.0000000000000000e+00  -1.1747957886462072e-02 5.2146563951037724e-03 0.0000000000000000e+00  -1.2311646610958090e-02 3.5079546555955190e-03 0.0000000000000000e+00  -1.2648062073093765e-02 1.8093333586015746e-03 0.0000000000000000e+00  -1.2781063511047549e-02 1.1516444367663037e-04 0.0000000000000000e+00  -1.2718897871646987e-02 -1.5867111178193166e-03 0.0000000000000000e+00  -1.2452537571143387e-02 -3.3095242083202251e-03 0.0000000000000000e+00  -1.1955623260974232e-02 -5.0597859339337808e-03 0.0000000000000000e+00  -1.1186559205583268e-02 -6.8285008497289083e-03 0.0000000000000000e+00  -1.0094425779593155e-02 -8.5814988936179209e-03 0.0000000000000000e+00  -8.6310987799709717e-03 -1.0251835489943996e-02 0.0000000000000000e+00  -6.7713445464656170e-03 -1.1745391777367527e-02 0.0000000000000000e+00  -4.5408151936033054e-03 -1.2953614064429556e-02 0.0000000000000000e+00  -2.0237981113044078e-03 -1.2997162454495037e-02 0.0000000000000000e+00  0.0000000000000000e+00 0.0000000000000000e+00 0.0000000000000000e+00  0.0000000000000000e+00 0.0000000000000000e+00 0.0000000000000000e+00  -2.5114829362284392e-03 1.5470343518187850e-02 0.0000000000000000e+00  -5.3790988067264267e-03 1.5114813170926817e-02 0.0000000000000000e+00  -7.9136376072232017e-03 1.3653873181036207e-02 0.0000000000000000e+00  -9.9900864394698499e-03 1.1876242435695220e-02 0.0000000000000000e+00  -1.1593555668939040e-02 9.9170162119516844e-03 0.0000000000000000e+00  -1.2769428529525610e-02 7.8972288409483917e-03 0.0000000000000000e+00  -1.3589643466431047e-02 5.8942480804087139e-03 0.0000000000000000e+00  -1.4127392844089164e-02 3.9403532850817964e-03 0.0000000000000000e+00  -1.4441837580628393e-02 2.0343303682551707e-03 0.0000000000000000e+00  -1.4570898531614590e-02 1.5395254753092371e-04 0.0000000000000000e+00  -1.4528433718979957e-02 -1.7336869454511574e-03 0.0000000000000000e+00  -1.4302924779905296e-02 -3.6635035587199781e-03 0.0000000000000000e+00  -1.3856436605765592e-02 -5.6635699882357010e-03 0.0000000000000000e+00  -1.3124426797241798e-02 -7.7437345377743862e-03 0.0000000000000000e+00  -1.2019610245387388e-02 -9.8804815870100482e-03 0.0000000000000000e+00  -1.0444923766162005e-02 -1.1999562840087670e-02 0.0000000000000000e+00  -8.3235138819298983e-03 -1.3971801097236876e-02 0.0000000000000000e+00  -5.6508432341202518e-03 -1.5619630554300394e-02 0.0000000000000000e+00  -2.5284535812409295e-03 -1.5794969458559259e-02 0.0000000000000000e+00  0.0000000000000000e+00 0.0000000000000000e+00 0.0000000000000000e+00  0.0000000000000000e+00 0.0000000000000000e+00 0.0000000000000000e+00  -3.1958738425902039e-03 1.8785321270633575e-02 0.0000000000000000e+00  -6.7606631121971874e-03 1.8172376508841109e-02 0.0000000000000000e+00  -9.7923168343317518e-03 1.6162104672621913e-02 0.0000000000000000e+00  -1.2138871854412463e-02 1.3799007257048223e-02 0.0000000000000000e+00  -1.3827941738089031e-02 1.1306951461010644e-02 0.0000000000000000e+00  -1.4973193337760