<?xml version="1.0"?>
<VTKFile type="UnstructuredGrid"  version="0.1"  >
<UnstructuredGrid>
<Piece  NumberOfPoints="441" NumberOfCells="800">
<Points>
<DataArray  type="Float64"  NumberOfComponents="3"  format="ascii">0 0 0  0.05 0 0  0.1 0 0  0.15 0 0  0.2 0 0  0.25 0 0  0.3 0 0  0.35 0 0  0.4 0 0  0.45 0 0  0.5 0 0  0.55 0 0  0.6 0 0  0.65 0 0  0.7 0 0  0.75 0 0  0.8 0 0  0.85 0 0  0.9 0 0  0.95 0 0  1 0 0  0 0.05 0  0.05 0.05 0  0.1 0.05 0  0.15 0.05 0  0.2 0.05 0  0.25 0.05 0  0.3 0.05 0  0.35 0.05 0  0.4 0.05 0  0.45 0.05 0  0.5 0.05 0  0.55 0.05 0  0.6 0.05 0  0.65 0.05 0  0.7 0.05 0  0.75 0.05 0  0.8 0.05 0  0.85 0.05 0  0.9 0.05 0  0.95 0.05 0  1 0.05 0  0 0.1 0  0.05 0.1 0  0.1 0.1 0  0.15 0.1 0  0.2 0.1 0  0.25 0.1 0  0.3 0.1 0  0.35 0.1 0  0.4 0.1 0  0.45 0.1 0  0.5 0.1 0  0.55 0.1 0  0.6 0.1 0  0.65 0.1 0  0.7 0.1 0  0.75 0.1 0  0.8 0.1 0  0.85 0.1 0  0.9 0.1 0  0.95 0.1 0  1 0.1 0  0 0.15 0  0.05 0.15 0  0.1 0.15 0  0.15 0.15 0  0.2 0.15 0  0.25 0.15 0  0.3 0.15 0  0.35 0.15 0  0.4 0.15 0  0.45 0.15 0  0.5 0.15 0  0.55 0.15 0  0.6 0.15 0  0.65 0.15 0  0.7 0.15 0  0.75 0.15 0  0.8 0.15 0  0.85 0.15 0  0.9 0.15 0  0.95 0.15 0  1 0.15 0  0 0.2 0  0.05 0.2 0  0.1 0.2 0  0.15 0.2 0  0.2 0.2 0  0.25 0.2 0  0.3 0.2 0  0.35 0.2 0  0.4 0.2 0  0.45 0.2 0  0.5 0.2 0  0.55 0.2 0  0.6 0.2 0  0.65 0.2 0  0.7 0.2 0  0.75 0.2 0  0.8 0.2 0  0.85 0.2 0  0.9 0.2 0  0.95 0.2 0  1 0.2 0  0 0.25 0  0.05 0.25 0  0.1 0.25 0  0.15 0.25 0  0.2 0.25 0  0.25 0.25 0  0.3 0.25 0  0.35 0.25 0  0.4 0.25 0  0.45 0.25 0  0.5 0.25 0  0.55 0.25 0  0.6 0.25 0  0.65 0.25 0  0.7 0.25 0  0.75 0.25 0  0.8 0.25 0  0.85 0.25 0  0.9 0.25 0  0.95 0.25 0  1 0.25 0  0 0.3 0  0.05 0.3 0  0.1 0.3 0  0.15 0.3 0  0.2 0.3 0  0.25 0.3 0  0.3 0.3 0  0.35 0.3 0  0.4 0.3 0  0.45 0.3 0  0.5 0.3 0  0.55 0.3 0  0.6 0.3 0  0.65 0.3 0  0.7 0.3 0  0.75 0.3 0  0.8 0.3 0  0.85 0.3 0  0.9 0.3 0  0.95 0.3 0  1 0.3 0  0 0.35 0  0.05 0.35 0  0.1 0.35 0  0.15 0.35 0  0.2 0.35 0  0.25 0.35 0  0.3 0.35 0  0.35 0.35 0  0.4 0.35 0  0.45 0.35 0  0.5 0.35 0  0.55 0.35 0  0.6 0.35 0  0.65 0.35 0  0.7 0.35 0  0.75 0.35 0  0.8 0.35 0  0.85 0.35 0  0.9 0.35 0  0.95 0.35 0  1 0.35 0  0 0.4 0  0.05 0.4 0  0.1 0.4 0  0.15 0.4 0  0.2 0.4 0  0.25 0.4 0  0.3 0.4 0  0.35 0.4 0  0.4 0.4 0  0.45 0.4 0  0.5 0.4 0  0.55 0.4 0  0.6 0.4 0  0.65 0.4 0  0.7 0.4 0  0.75 0.4 0  0.8 0.4 0  0.85 0.4 0  0.9 0.4 0  0.95 0.4 0  1 0.4 0  0 0.45 0  0.05 0.45 0  0.1 0.45 0  0.15 0.45 0  0.2 0.45 0  0.25 0.45 0  0.3 0.45 0  0.35 0.45 0  0.4 0.45 0  0.45 0.45 0  0.5 0.45 0  0.55 0.45 0  0.6 0.45 0  0.65 0.45 0  0.7 0.45 0  0.75 0.45 0  0.8 0.45 0  0.85 0.45 0  0.9 0.45 0  0.95 0.45 0  1 0.45 0  0 0.5 0  0.05 0.5 0  0.1 0.5 0  0.15 0.5 0  0.2 0.5 0  0.25 0.5 0  0.3 0.5 0  0.35 0.5 0  0.4 0.5 0  0.45 0.5 0  0.5 0.5 0  0.55 0.5 0  0.6 0.5 0  0.65 0.5 0  0.7 0.5 0  0.75 0.5 0  0.8 0.5 0  0.85 0.5 0  0.9 0.5 0  0.95 0.5 0  1 0.5 0  0 0.55 0  0.05 0.55 0  0.1 0.55 0  0.15 0.55 0  0.2 0.55 0  0.25 0.55 0  0.3 0.55 0  0.35 0.55 0  0.4 0.55 0  0.45 0.55 0  0.5 0.55 0  0.55 0.55 0  0.6 0.55 0  0.65 0.55 0  0.7 0.55 0  0.75 0.55 0  0.8 0.55 0  0.85 0.55 0  0.9 0.55 0  0.95 0.55 0  1 0.55 0  0 0.6 0  0.05 0.6 0  0.1 0.6 0  0.15 0.6 0  0.2 0.6 0  0.25 0.6 0  0.3 0.6 0  0.35 0.6 0  0.4 0.6 0  0.45 0.6 0  0.5 0.6 0  0.55 0.6 0  0.6 0.6 0  0.65 0.6 0  0.7 0.6 0  0.75 0.6 0  0.8 0.6 0  0.85 0.6 0  0.9 0.6 0  0.95 0.6 0  1 0.6 0  0 0.65 0  0.05 0.65 0  0.1 0.65 0  0.15 0.65 0  0.2 0.65 0  0.25 0.65 0  0.3 0.65 0  0.35 0.65 0  0.4 0.65 0  0.45 0.65 0  0.5 0.65 0  0.55 0.65 0  0.6 0.65 0  0.65 0.65 0  0.7 0.65 0  0.75 0.65 0  0.8 0.65 0  0.85 0.65 0  0.9 0.65 0  0.95 0.65 0  1 0.65 0  0 0.7 0  0.05 0.7 0  0.1 0.7 0  0.15 0.7 0  0.2 0.7 0  0.25 0.7 0  0.3 0.7 0  0.35 0.7 0  0.4 0.7 0  0.45 0.7 0  0.5 0.7 0  0.55 0.7 0  0.6 0.7 0  0.65 0.7 0  0.7 0.7 0  0.75 0.7 0  0.8 0.7 0  0.85 0.7 0  0.9 0.7 0  0.95 0.7 0  1 0.7 0  0 0.75 0  0.05 0.75 0  0.1 0.75 0  0.15 0.75 0  0.2 0.75 0  0.25 0.75 0  0.3 0.75 0  0.35 0.75 0  0.4 0.75 0  0.45 0.75 0  0.5 0.75 0  0.55 0.75 0  0.6 0.75 0  0.65 0.75 0  0.7 0.75 0  0.75 0.75 0  0.8 0.75 0  0.85 0.75 0  0.9 0.75 0  0.95 0.75 0  1 0.75 0  0 0.8 0  0.05 0.8 0  0.1 0.8 0  0.15 0.8 0  0.2 0.8 0  0.25 0.8 0  0.3 0.8 0  0.35 0.8 0  0.4 0.8 0  0.45 0.8 0  0.5 0.8 0  0.55 0.8 0  0.6 0.8 0  0.65 0.8 0  0.7 0.8 0  0.75 0.8 0  0.8 0.8 0  0.85 0.8 0  0.9 0.8 0  0.95 0.8 0  1 0.8 0  0 0.85 0  0.05 0.85 0  0.1 0.85 0  0.15 0.85 0  0.2 0.85 0  0.25 0.85 0  0.3 0.85 0  0.35 0.85 0  0.4 0.85 0  0.45 0.85 0  0.5 0.85 0  0.55 0.85 0  0.6 0.85 0  0.65 0.85 0  0.7 0.85 0  0.75 0.85 0  0.8 0.85 0  0.85 0.85 0  0.9 0.85 0  0.95 0.85 0  1 0.85 0  0 0.9 0  0.05 0.9 0  0.1 0.9 0  0.15 0.9 0  0.2 0.9 0  0.25 0.9 0  0.3 0.9 0  0.35 0.9 0  0.4 0.9 0  0.45 0.9 0  0.5 0.9 0  0.55 0.9 0  0.6 0.9 0  0.65 0.9 0  0.7 0.9 0  0.75 0.9 0  0.8 0.9 0  0.85 0.9 0  0.9 0.9 0  0.95 0.9 0  1 0.9 0  0 0.95 0  0.05 0.95 0  0.1 0.95 0  0.15 0.95 0  0.2 0.95 0  0.25 0.95 0  0.3 0.95 0  0.35 0.95 0  0.4 0.95 0  0.45 0.95 0  0.5 0.95 0  0.55 0.95 0  0.6 0.95 0  0.65 0.95 0  0.7 0.95 0  0.75 0.95 0  0.8 0.95 0  0.85 0.95 0  0.9 0.95 0  0.95 0.95 0  1 0.95 0  0 1 0  0.05 1 0  0.1 1 0  0.15 1 0  0.2 1 0  0.25 1 0  0.3 1 0  0.35 1 0  0.4 1 0  0.45 1 0  0.5 1 0  0.55 1 0  0.6 1 0  0.65 1 0  0.7 1 0  0.75 1 0  0.8 1 0  0.85 1 0  0.9 1 0  0.95 1 0  1 1 0  </DataArray>
</Points>
<Cells>
[...]
<PointData  Vectors="f_137"> 
<DataArray  type="Float64"  Name="f_137"  NumberOfComponents="3" format="ascii">0.0000000000000000e+00 0.0000000000000000e+00 0.0000000000000000e+00  0.0000000000000000e+00 0.0000000000000000e+00 0.0000000000000000e+00  0.0000000000000000e+00 0.0000000000000000e+00 0.0000000000000000e+00  0.0000000000000000e+00 0.0000000000000000e+00 0.0000000000000000e+00  0.0000000000000000e+00 0.0000000000000000e+00 0.0000000000000000e+00  0.0000000000000000e+00 0.0000000000000000e+00 0.0000000000000000e+00  0.0000000000000000e+00 0.0000000000000000e+00 0.0000000000000000e+00  0.0000000000000000e+00 0.0000000000000000e+00 0.0000000000000000e+00  0.0000000000000000e+00 0.0000000000000000e+00 0.0000000000000000e+00  0.0000000000000000e+00 0.0000000000000000e+00 0.0000000000000000e+00  0.0000000000000000e+00 0.0000000000000000e+00 0.0000000000000000e+00  0.0000000000000000e+00 0.0000000000000000e+00 0.0000000000000000e+00  0.0000000000000000e+00 0.0000000000000000e+00 0.0000000000000000e+00  0.0000000000000000e+00 0.0000000000000000e+00 0.0000000000000000e+00  0.0000000000000000e+00 0.0000000000000000e+00 0.0000000000000000e+00  0.0000000000000000e+00 0.0000000000000000e+00 0.0000000000000000e+00  0.0000000000000000e+00 0.0000000000000000e+00 0.0000000000000000e+00  0.0000000000000000e+00 0.0000000000000000e+00 0.0000000000000000e+00  0.0000000000000000e+00 0.0000000000000000e+00 0.0000000000000000e+00  0.0000000000000000e+00 0.0000000000000000e+00 0.0000000000000000e+00  0.0000000000000000e+00 0.0000000000000000e+00 0.0000000000000000e+00  0.0000000000000000e+00 0.0000000000000000e+00 0.0000000000000000e+00  -6.3192356840540722e-04 6.2321658719562795e-04 0.0000000000000000e+00  -1.3940943567545860e-03 5.9040387471789402e-04 0.0000000000000000e+00  -2.1187024500913944e-03 5.5162778157755968e-04 0.0000000000000000e+00  -2.7874279440139350e-03 4.9954178492642772e-04 0.0000000000000000e+00  -3.3833476906894497e-03 4.3481444873499187e-04 0.0000000000000000e+00  -3.8915260924339864e-03 3.5935636832685769e-04 0.0000000000000000e+00  -4.2995904278919361e-03 2.7521683103748270e-04 0.0000000000000000e+00  -4.5978263515772493e-03 1.8451449196133426e-04 0.0000000000000000e+00  -4.7792157679966687e-03 8.9396913869738750e-05 0.0000000000000000e+00  -4.8394471463409890e-03 -7.9800002363477064e-06 0.0000000000000000e+00  -4.7769162585080648e-03 -1.0544653073947459e-04 0.0000000000000000e+00  -4.5927444658349307e-03 -2.0080016834505573e-04 0.0000000000000000e+00  -4.2908237576421747e-03 -2.9178899596585234e-04 0.0000000000000000e+00  -3.8778754807022209e-03 -3.7611049051157415e-04 0.0000000000000000e+00  -3.3634899304467725e-03 -4.5144572651635275e-04 0.0000000000000000e+00  -2.7601109785246789e-03 -5.1566356509520530e-04 0.0000000000000000e+00  -2.0830194413047525e-03 -5.6780073883192699e-04 0.0000000000000000e+00  -1.3505412986072984e-03 -6.0769118883743532e-04 0.0000000000000000e+00  -5.7946592498051724e-04 -5.7715983602518598e-04 0.0000000000000000e+00  0.0000000000000000e+00 0.0000000000000000e+00 0.0000000000000000e+00  0.0000000000000000e+00 0.0000000000000000e+00 0.0000000000000000e+00  -6.4415189910576015e-04 1.4099767313362976e-03 0.0000000000000000e+00  -1.4509206361348829e-03 1.3694562680803711e-03 0.0000000000000000e+00  -2.2233012318784496e-03 1.2808208371499381e-03 0.0000000000000000e+00  -2.9370311273784022e-03 1.1626780221051980e-03 0.0000000000000000e+00  -3.5735583758624767e-03 1.0151496017851167e-03 0.0000000000000000e+00  -4.1171582527277546e-03 8.4264501721856961e-04 0.0000000000000000e+00  -4.5547802470694192e-03 6.4990266974007075e-04 0.0000000000000000e+00  -4.8761944714689458e-03 4.4180813100681664e-04 0.0000000000000000e+00  -5.0740015432953200e-03 2.2328289143757512e-04 0.0000000000000000e+00  -5.1435936307781200e-03 -7.6035832637021796e-07 0.0000000000000000e+00  -5.0831230078258833e-03 -2.2539591650336328e-04 0.0000000000000000e+00  -4.8935140746089820e-03 -4.4562745695329452e-04 0.0000000000000000e+00  -4.5785315927330469e-03 -6.5633316667571516e-04 0.0000000000000000e+00  -4.1448910662584895e-03 -8.5224935585625019e-04 0.0000000000000000e+00  -3.6023709213293320e-03 -1.0280330601491695e-03 0.0000000000000000e+00  -2.9638586876018043e-03 -1.1785655147500320e-03 0.0000000000000000e+00  -2.2452825726877318e-03 -1.3003407959881863e-03 0.0000000000000000e+00  -1.4661858945689556e-03 -1.3928277974064593e-03 0.0000000000000000e+00  -6.4869426858695563e-04 -1.3697065075035828e-03 0.0000000000000000e+00  0.0000000000000000e+00 0.0000000000000000e+00 0.0000000000000000e+00  0.0000000000000000e+00 0.0000000000000000e+00 0.0000000000000000e+00  -6.8347931829725234e-04 2.2331414451577281e-03 0.0000000000000000e+00  -1.5347703770770920e-03 2.1871442390518640e-03 0.0000000000000000e+00  -2.3491136754552871e-03 2.0446009003966142e-03 0.0000000000000000e+00  -3.1010411101100783e-03 1.8555651635514614e-03 0.0000000000000000e+00  -3.7706163606922838e-03 1.6201884046205450e-03 0.0000000000000000e+00  -4.3415727367346769e-03 1.3452039093099146e-03 0.0000000000000000e+00  -4.8006245386624184e-03 1.0382992676418088e-03 0.0000000000000000e+00  -5.1375000218188650e-03 7.0727376509209538e-04 0.0000000000000000e+00  -5.3448524483169866e-03 3.5987417153324761e-04 0.0000000000000000e+00  -5.4181158881724126e-03 3.7515406465146245e-06 0.0000000000000000e+00  -5.3554005705838239e-03 -3.5346780825258237e-04 0.0000000000000000e+00  -5.1574814842948518e-03 -7.0404465875706552e-04 0.0000000000000000e+00  -4.8278999967993081e-03 -1.0399913251343514e-03 0.0000000000000000e+00  -4.3731611432451280e-03 -1.3530048826987087e-03 0.0000000000000000e+00  -3.8029701550159191e-03 -1.6345367126808269e-03 0.0000000000000000e+00  -3.1304100573633789e-03 -1.8762145417274014e-03 0.0000000000000000e+00  -2.3720074239717229e-03 -2.0718363485922259e-03 0.0000000000000000e+00  -1.5485614359975692e-03 -2.2203045388777204e-03 0.0000000000000000e+00  -6.8272072992104271e-04 -2.1993771053429360e-03 0.0000000000000000e+00  0.0000000000000000e+00 0.0000000000000000e+00 0.0000000000000000e+00  0.0000000000000000e+00 0.0000000000000000e+00 0.0000000000000000e+00  -7.4261719135750037e-04 3.1161520267779827e-03 0.0000000000000000e+00  -1.6642007217504086e-03 3.0632291879968921e-03 0.0000000000000000e+00  -2.5447061083166073e-03 2.8622762998993670e-03 0.0000000000000000e+00  -3.3559669390331569e-03 2.5960317641395077e-03 0.0000000000000000e+00  -4.0766992029474553e-03 2.2655289349372515e-03 0.0000000000000000e+00  -4.6898149891956200e-03 1.8803311484691092e-03 0.0000000000000000e+00  -5.1817379684257567e-03 1.4513765305161589e-03 0.0000000000000000e+00  -5.5422548427367891e-03 9.8958676150019752e-04 0.0000000000000000e+00  -5.7642150036861109e-03 5.0558473117188476e-04 0.0000000000000000e+00  -5.8432023471699235e-03 9.6827850459993986e-06 0.0000000000000000e+00  -5.7773025914305094e-03 -4.8793914886896572e-04 0.0000000000000000e+00  -5.5670468325743168e-03 -9.7694336430766593e-04 0.0000000000000000e+00  -5.2155635115918222e-03 -1.4465420805101206e-03 0.0000000000000000e+00  -4.7289180727561608e-03 -1.8853142815816837e-03 0.0000000000000000e+00  -4.1165623406216930e-03 -2.2812431440335777e-03 0.0000000000000000e+00  -3.3917548900039636e-03 -2.6222685400612102e-03 0.0000000000000000e+00  -2.5718561522342269e-03 -2.8989656164696686e-03 0.0000000000000000e+00  -1.6793858353596051e-03 -3.1090914085189904e-03 0.0000000000000000e+00  -7.3862212175264277e-04 -3.0908646220024799e-03 0.0000000000000000e+00  0.0000000000000000e+00 0.0000000000000000e+00 0.0000000000000000e+00  0.0000000000000000e+00 0.0000000000000000e+00 0.0000000000000000e+00  -8.2285418176643885e-04 4.0837101485092482e-03 0.0000000000000000e+00  -1.8403493569880713e-03 4.0211141046937937e-03 0.0000000000000000e+00  -2.8110274165969451e-03 3.7543526868123590e-03 0.0000000000000000e+00  -3.7026373526770004e-03 3.4016969280219185e-03 0.0000000000000000e+00  -4.4920060404044400e-03 2.9655967279284983e-03 0.0000000000000000e+00  -5.1611473783409927e-03 2.4592007369984995e-03 0.0000000000000000e+00  -5.6963741354681685e-03 1.8972543582430168e-03 0.0000000000000000e+00  -6.0878562871292700e-03 1.2940815120908854e-03 0.0000000000000000e+00  -6.3289829189275395e-03 6.6320193544775418e-04 0.0000000000000000e+00  -6.4157296787239870e-03 1.7398091927405922e-05 0.0000000000000000e+00  -6.3462169392402221e-03 -6.3090609182121012e-04 0.0000000000000000e+00  -6.1205750315770028e-03 -1.2690857582101837e-03 0.0000000000000000e+00  -5.7411671096188133e-03 -1.8837428629958756e-03 0.0000000000000000e+00  -5.2131482566831347e-03 -2.4602952350940752e-03 0.0000000000000000e+00  -4.5452575678988898e-03 -2.9829057462924620e-03 0.0000000000000000e+00  -3.7506463834891882e-03 -3.4351554182617877e-03 0.0000000000000000e+00  -2.8475683109077882e-03 -3.8035291772442661e-03 0.0000000000000000e+00  -1.8608510687373875e-03 -4.0838644737697721e-03 0.0000000000000000e+00  -8.1748770090574944e-04 -4.0694810141842404e-03 0.0000000000000000e+00  0.0000000000000000e+00 0.0000000000000000e+00 0.0000000000000000e+00  0.0000000000000000e+00 0.0000000000000000e+00 0.0000000000000000e+00  -9.2756751597653593e-04 5.1635601460966810e-03 0.0000000000000000e+00  -2.0703057660280098e-03 5.0874872040203361e-03 0.0000000000000000e+00  -3.1576709175978072e-03 4.7443142787714594e-03 0.0000000000000000e+00  -4.1521648203813981e-03 4.2921722305513665e-03 0.0000000000000000e+00  -5.0281981102071379e-03 3.7359495860409195e-03 0.0000000000000000e+00  -5.7669901747137145e-03 3.0935091076437341e-03 0.0000000000000000e+00  -6.3552429797105363e-03 2.3842104357716691e-03 0.0000000000000000e+00  -6.7841984795081944e-03 1.6261481505184395e-03 0.0000000000000000e+00  -7.0484469826971327e-03 8.3567529416558037e-04 0.0000000000000000e+00  -7.1448171357521278e-03 2.7645540426024573e-05 0.0000000000000000e+00  -7.0716072377927730e-03 -7.8386180287293898e-04 0.0000000000000000e+00  -6.8283204871540703e-03 -1.5845365225544232e-03 0.0000000000000000e+00  -6.4159793193332539e-03 -2.3587964086236868e-03 0.0000000000000000e+00  -5.8380047768852852e-03 -3.0889679627644881e-03 0.0000000000000000e+00  -5.1015369970692738e-03 -3.7549672223437438e-03 0.0000000000000000e+00  -4.2189289361843204e-03 -4.3350476353203075e-03 0.0000000000000000e+00  -3.2091204878883185e-03 -4.8102529939338286e-03 0.0000000000000000e+00  -2.0998123209701371e-03 -5.1731752241018477e-03 0.0000000000000000e+00  -9.2188324856115047e-04 -5.1647983454356965e-03 0.0000000000000000e+00  0.0000000000000000e+00 0.0000000000000000e+00 0.0000000000000000e+00  0.0000000000000000e+00 0.0000000000000000e+00 0.0000000000000000e+00  -1.0616202646657666e-03 6.3883225540323297e-03 0.0000000000000000e+00  -2.3642002379230739e-03 6.2930916099640088e-03 0.0000000000000000e+00  -3.5988190253868112e-03 5.8584559473716206e-03 0.0000000000000000e+00  -4.7210677511178977e-03 5.2885425719632140e-03 0.0000000000000000e+00  -5.7025349440251302e-03 4.5924273353461810e-03 0.0000000000000000e+00  -6.5241107984747894e-03 3.7944105192424154e-03 0.0000000000000000e+00  -7.1739304788807270e-03 2.9196233687015846e-03 0.0000000000000000e+00  -7.6455684264228807e-03 1.9903609831048996e-03 0.0000000000000000e+00  -7.9359695740235416e-03 1.0255656886192733e-03 0.0000000000000000e+00  -8.0436112724235204e-03 4.1405663783777958e-05 0.0000000000000000e+00  -7.9672473291902950e-03 -9.4743158219453530e-04 0.0000000000000000e+00  -7.7054377867876184e-03 -1.9260346844909226e-03 0.0000000000000000e+00  -7.2569664576175004e-03 -2.8774846667660400e-03 0.0000000000000000e+00  -6.6221581331918781e-03 -3.7813459690026205e-03 0.0000000000000000e+00  -5.8049785813123114e-03 -4.6128478807545325e-03 0.0000000000000000e+00  -4.8155877386021183e-03 -5.3435735434093313e-03 0.0000000000000000e+00  -3.6728904570115569e-03 -5.9470476150457405e-03 0.0000000000000000e+00  -2.4079257977610074e-03 -6.4103846964444636e-03 0.0000000000000000e+00  -1.0569830411747726e-03 -6.4120945957545630e-03 0.0000000000000000e+00  0.0000000000000000e+00 0.0000000000000000e+00 0.0000000000000000e+00  0.0000000000000000e+00 0.0000000000000000e+00 0.0000000000000000e+00  -1.2320962246831083e-03 7.7975661655064451e-03 0.0000000000000000e+00  -2.7366289610799371e-03 7.6743795769544819e-03 0.0000000000000000e+00  -4.1544851145288832e-03 7.1267076635672848e-03 0.0000000000000000e+00  -5.4320978582003462e-03 6.4133621345651469e-03 0.0000000000000000e+00  -6.5380051979314078e-03 5.5505119571982574e-03 0.0000000000000000e+00  -7.4539199679596740e-03 4.5715276826332040e-03 0.0000000000000000e+00  -8.1713649340476903e-03 3.5089208867760966e-03 0.0000000000000000e+00  -8.6884166045779060e-03 2.3896182724646650e-03 0.0000000000000000e+00  -9.0062698303490403e-03 1.2345547614542407e-03 0.0000000000000000e+00  -9.1263396729302435e-03 5.9871882987176814e-05 0.0000000000000000e+00  -9.0483219392865008e-03 -1.1208955411288757e-03 0.0000000000000000e+00  -8.7694185053290730e-03 -2.2940767835055277e-03 0.0000000000000000e+00  -8.2848413915899734e-03 -3.4429708816093789e-03 0.0000000000000000e+00  -7.5896698556689310e-03 -4.5452307125028579e-03 0.0000000000000000e+00  -6.6820296825085956e-03 -5.5711053187218569e-03 0.0000000000000000e+00  -5.5672788018864671e-03 -6.4837381521112274e-03 0.0000000000000000e+00  -4.2625712246849431e-03 -7.2459802934600028e-03 0.0000000000000000e+00  -2.8024362466850519e-03 -7.8357199515107553e-03 0.0000000000000000e+00  -1.2306009061911398e-03 -7.8548865233842337e-03 0.0000000000000000e+00  0.0000000000000000e+00 0.0000000000000000e+00 0.0000000000000000e+00  0.0000000000000000e+00 0.0000000000000000e+00 0.0000000000000000e+00  -1.4495399166994788e-03 9.4409869639941520e-03 0.0000000000000000e+00  -3.2089992537661545e-03 9.2758218902415906e-03 0.0000000000000000e+00  -4.8533574468310903e-03 8.5836069057207299e-03 0.0000000000000000e+00  -6.3168293462131193e-03 7.6903119728541384e-03 0.0000000000000000e+00  -7.5651712131037758e-03 6.6240397387670475e-03 0.0000000000000000e+00  -8.5833358484662687e-03 5.4312102289814290e-03 0.0000000000000000e+00  -9.3697229778463131e-03 4.1538568328751855e-03 0.0000000000000000e+00  -9.9304864585356249e-03 2.8237921560321116e-03 0.0000000000000000e+00  -1.0274036604224504e-02 1.4626961451481560e-03 0.0000000000000000e+00  -1.0406696050576035e-02 8.4428180152865362e-05 0.0000000000000000e+00  -1.0329893446821189e-02 -1.3014399990904358e-03 0.0000000000000000e+00  -1.0038979625784358e-02 -2.6854405639202958e-03 0.0000000000000000e+00  -9.5237383920181145e-03 -4.0537712198785714e-03 0.0000000000000000e+00  -8.7707818624888616e-03 -5.3840005345575084e-03 0.0000000000000000e+00  -7.7680674834733291e-03 -6.6416274180139115e-03 0.0000000000000000e+00  -6.5114655068908176e-03 -7.7792378937076847e-03 0.0000000000000000e+00  -5.0127232642642001e-03 -8.7443195915977608e-03 0.0000000000000000e+00  -3.3091308991545281e-03 -9.4992153829226919e-03 0.0000000000000000e+00  -1.4545220903738462e-03 -9.5489834725140232e-03 0.0000000000000000e+00  0.0000000000000000e+00 0.0000000000000000e+00 0.0000000000000000e+00  0.0000000000000000e+00 0.0000000000000000e+00 0.0000000000000000e+00  -1.7300949851561482e-03 1.1383413648752059e-02 0.0000000000000000e+00  -3.8134973464617095e-03 1.1153284703660556e-02 0.0000000000000000e+00  -5.7374171434812753e-03 1.0269319338113925e-02 0.0000000000000000e+00  -7.4197155494893068e-03 9.1430837140305202e-03 0.0000000000000000e+00  -8.8248681001162777e-03 7.8226897548788216e-03 0.0000000000000000e+00  -9.9458791934896908e-03 6.3735146260818446e-03 0.0000000000000000e+00  -1.0794083331051153e-02 4.8497128076102850e-03 0.0000000000000000e+00  -1.1389391989723052e-02 3.2876211338833485e-03 0.0000000000000000e+00  -1.1751830495234752e-02 1.7072453527112233e-03 0.0000000000000000e+00  -1.1895439527867174e-02 1.1653834896913685e-04 0.0000000000000000e+00  -1.1824567832315662e-02 -1.4831383546740117e-03 0.0000000000000000e+00  -1.1532233227070934e-02 -3.0910176142589490e-03 0.0000000000000000e+00  -1.1000439946308348e-02 -4.7005603476169104e-03 0.0000000000000000e+00  -1.0202825707783797e-02 -6.2928165170421423e-03 0.0000000000000000e+00  -9.1104633724761828e-03 -7.8301161059708326e-03 0.0000000000000000e+00  -7.7015672501192164e-03 -9.2525096130945325e-03 0.0000000000000000e+00  -5.9749981827858564e-03 -1.0485452776183101e-02 0.0000000000000000e+00  -3.9677684482023684e-03 -1.1465094779905994e-02 0.0000000000000000e+00  -1.7471184091542560e-03 -1.1569095600142864e-02 0.0000000000000000e+00  0.0000000000000000e+00 0.0000000000000000e+00 0.0000000000000000e+00  0.0000000000000000e+00 0.0000000000000000e+00 0.0000000000000000e+00  -2.0993716460074980e-03 1.3712956411403179e-02 0.0000000000000000e+00  -4.6000289143294229e-03 1.3379089725729341e-02 0.0000000000000000e+00  -6.8696515854054317e-03 1.2230467865908664e-02 0.0000000000000000e+00  -8.8044000424989735e-03 1.0792676491244655e-02 0.0000000000000000e+00  -1.0371937508921649e-02 9.1473137854598905e-03 0.0000000000000000e+00  -1.1582719743844689e-02 7.3871574318105163e-03 0.0000000000000000e+00  -1.2471333825153827e-02 5.5809691506857649e-03 0.0000000000000000e+00  -1.3080110027011834e-02 3.7676205753304306e-03 0.0000000000000000e+00  -1.3446768005878719e-02 1.9609620882121565e-03 0.0000000000000000e+00  -1.3596696811831127e-02 1.5747808090961208e-04 0.0000000000000000e+00  -1.3538769308906481e-02 -1.6556963471389048e-03 0.0000000000000000e+00  -1.3263406312236563e-02 -3.4928625865063142e-03 0.0000000000000000e+00  -1.2742321886426072e-02 -5.3614199463279015e-03 0.0000000000000000e+00  -1.1930541305584436e-02 -7.2523702591214632e-03 0.0000000000000000e+00  -1.0772484071955067e-02 -9.1295121491258915e-03 0.0000000000000000e+00  -9.2149449357108917e-03 -1.0920084289504696e-02 0.0000000000000000e+00  -7.2289038725697544e-03 -1.2519010037452838e-02 0.0000000000000000e+00  -4.8420797899726966e-03 -1.3818448486109367e-02 0.0000000000000000e+00  -2.1382918940388734e-03 -1.4020101650330703e-02 0.0000000000000000e+00  0.0000000000000000e+00 0.0000000000000000e+00 0.0000000000000000e+00  0.0000000000000000e+00 0.0000000000000000e+00 0.0000000000000000e+00  -2.5996931202688653e-03 1.6554893094378052e-02 0.0000000000000000e+00  -5.6487590503468193e-03 1.6049673593990118e-02 0.0000000000000000e+00  -8.3472093129360932e-03 1.4519962033505260e-02 0.0000000000000000e+00  -1.0563489860136638e-02 1.2651377089687117e-02 0.0000000000000000e+00  -1.2280041961173755e-02 1.0581410121431420e-02 0.0000000000000000e+00  -1.3543049814682961e-02 8.4413369196456017e-03 0.0000000000000000e+00  -1.4427568553349642e-02 6.3149675976136490e-03 0.0000000000000000e+00  -1.5010789081602005e-02 4.2379104459133732e-03 0.0000000000000000e+00  -1.5355599293979456e-02 2.2098809087312244e-03 0.0000000000000000e+00  -1.5502665589606182e-02 2.0782457207622787e-04 0.0000000000000000e+00  -1.5467202677985006e-02 -1.8031594174962786e-03 0.0000000000000000e+00  -1.5237359922452445e-02 -3.8606140726264310e-03 0.0000000000000000e+00  -1.4772859438941740e-02 -5.9953125067552706e-03 0.0000000000000000e+00  -1.4004442614556894e-02 -8.2190487546253480e-03 0.0000000000000000e+00  -1.2837365661402887e-02 -1.0507999356279085e-02 0.0000000000000000e+00  -1.1164920058649100e-02 -1.2782163970082971e-02 0.0000000000000000e+00  -8.9009986317689447e-03 -1.4898270158882388e-02 0.0000000000000000e+00  -6.0392280928257902e-03 -1.6675592380733385e-02 0.0000000000000000e+00  -2.6788080065095602e-03 -1.7056530245770241e-02 0.0000000000000000e+00  0.0000000000000000e+00 0.0000000000000000e+00 0.0000000000000000e+00  0.0000000000000000e+00 0.0000000000000000e+00 0.0000000000000000e+00  -3.3038538581253137e-03 2.0096376655714277e-02 0.0000000000000000e+00  -7.0937683161773363e-03 1.9297042817130412e-02 0.0000000000000000e+00  -1.0324241752242176e-02 1.7193573911513750e-02 0.0000000000000000e+00  -1.2833310277516973e-02 1.4709668508185449e-02 0.0000000000000000e+00  -1.4646797016298653e-02 1.2075701404025896e-02 0.0000000000000000e+00  -1.58821088135476