<?xml version="1.0"?>
<VTKFile type="UnstructuredGrid"  version="0.1"  >
<UnstructuredGrid>
<Piece  NumberOfPoints="441" NumberOfCells="800">
<Points>
<DataArray  type="Float64"  NumberOfComponents="3"  format="ascii">0 0 0  0.05 0 0  0.1 0 0  0.15 0 0  0.2 0 0  0.25 0 0  0.3 0 0  0.35 0 0  0.4 0 0  0.45 0 0  0.5 0 0  0.55 0 0  0.6 0 0  0.65 0 0  0.7 0 0  0.75 0 0  0.8 0 0  0.85 0 0  0.9 0 0  0.95 0 0  1 0 0  0 0.05 0  0.05 0.05 0  0.1 0.05 0  0.15 0.05 0  0.2 0.05 0  0.25 0.05 0  0.3 0.05 0  0.35 0.05 0  0.4 0.05 0  0.45 0.05 0  0.5 0.05 0  0.55 0.05 0  0.6 0.05 0  0.65 0.05 0  0.7 0.05 0  0.75 0.05 0  0.8 0.05 0  0.85 0.05 0  0.9 0.05 0  0.95 0.05 0  1 0.05 0  0 0.1 0  0.05 0.1 0  0.1 0.1 0  0.15 0.1 0  0.2 0.1 0  0.25 0.1 0  0.3 0.1 0  0.35 0.1 0  0.4 0.1 0  0.45 0.1 0  0.5 0.1 0  0.55 0.1 0  0.6 0.1 0  0.65 0.1 0  0.7 0.1 0  0.75 0.1 0  0.8 0.1 0  0.85 0.1 0  0.9 0.1 0  0.95 0.1 0  1 0.1 0  0 0.15 0  0.05 0.15 0  0.1 0.15 0  0.15 0.15 0  0.2 0.15 0  0.25 0.15 0  0.3 0.15 0  0.35 0.15 0  0.4 0.15 0  0.45 0.15 0  0.5 0.15 0  0.55 0.15 0  0.6 0.15 0  0.65 0.15 0  0.7 0.15 0  0.75 0.15 0  0.8 0.15 0  0.85 0.15 0  0.9 0.15 0  0.95 0.15 0  1 0.15 0  0 0.2 0  0.05 0.2 0  0.1 0.2 0  0.15 0.2 0  0.2 0.2 0  0.25 0.2 0  0.3 0.2 0  0.35 0.2 0  0.4 0.2 0  0.45 0.2 0  0.5 0.2 0  0.55 0.2 0  0.6 0.2 0  0.65 0.2 0  0.7 0.2 0  0.75 0.2 0  0.8 0.2 0  0.85 0.2 0  0.9 0.2 0  0.95 0.2 0  1 0.2 0  0 0.25 0  0.05 0.25 0  0.1 0.25 0  0.15 0.25 0  0.2 0.25 0  0.25 0.25 0  0.3 0.25 0  0.35 0.25 0  0.4 0.25 0  0.45 0.25 0  0.5 0.25 0  0.55 0.25 0  0.6 0.25 0  0.65 0.25 0  0.7 0.25 0  0.75 0.25 0  0.8 0.25 0  0.85 0.25 0  0.9 0.25 0  0.95 0.25 0  1 0.25 0  0 0.3 0  0.05 0.3 0  0.1 0.3 0  0.15 0.3 0  0.2 0.3 0  0.25 0.3 0  0.3 0.3 0  0.35 0.3 0  0.4 0.3 0  0.45 0.3 0  0.5 0.3 0  0.55 0.3 0  0.6 0.3 0  0.65 0.3 0  0.7 0.3 0  0.75 0.3 0  0.8 0.3 0  0.85 0.3 0  0.9 0.3 0  0.95 0.3 0  1 0.3 0  0 0.35 0  0.05 0.35 0  0.1 0.35 0  0.15 0.35 0  0.2 0.35 0  0.25 0.35 0  0.3 0.35 0  0.35 0.35 0  0.4 0.35 0  0.45 0.35 0  0.5 0.35 0  0.55 0.35 0  0.6 0.35 0  0.65 0.35 0  0.7 0.35 0  0.75 0.35 0  0.8 0.35 0  0.85 0.35 0  0.9 0.35 0  0.95 0.35 0  1 0.35 0  0 0.4 0  0.05 0.4 0  0.1 0.4 0  0.15 0.4 0  0.2 0.4 0  0.25 0.4 0  0.3 0.4 0  0.35 0.4 0  0.4 0.4 0  0.45 0.4 0  0.5 0.4 0  0.55 0.4 0  0.6 0.4 0  0.65 0.4 0  0.7 0.4 0  0.75 0.4 0  0.8 0.4 0  0.85 0.4 0  0.9 0.4 0  0.95 0.4 0  1 0.4 0  0 0.45 0  0.05 0.45 0  0.1 0.45 0  0.15 0.45 0  0.2 0.45 0  0.25 0.45 0  0.3 0.45 0  0.35 0.45 0  0.4 0.45 0  0.45 0.45 0  0.5 0.45 0  0.55 0.45 0  0.6 0.45 0  0.65 0.45 0  0.7 0.45 0  0.75 0.45 0  0.8 0.45 0  0.85 0.45 0  0.9 0.45 0  0.95 0.45 0  1 0.45 0  0 0.5 0  0.05 0.5 0  0.1 0.5 0  0.15 0.5 0  0.2 0.5 0  0.25 0.5 0  0.3 0.5 0  0.35 0.5 0  0.4 0.5 0  0.45 0.5 0  0.5 0.5 0  0.55 0.5 0  0.6 0.5 0  0.65 0.5 0  0.7 0.5 0  0.75 0.5 0  0.8 0.5 0  0.85 0.5 0  0.9 0.5 0  0.95 0.5 0  1 0.5 0  0 0.55 0  0.05 0.55 0  0.1 0.55 0  0.15 0.55 0  0.2 0.55 0  0.25 0.55 0  0.3 0.55 0  0.35 0.55 0  0.4 0.55 0  0.45 0.55 0  0.5 0.55 0  0.55 0.55 0  0.6 0.55 0  0.65 0.55 0  0.7 0.55 0  0.75 0.55 0  0.8 0.55 0  0.85 0.55 0  0.9 0.55 0  0.95 0.55 0  1 0.55 0  0 0.6 0  0.05 0.6 0  0.1 0.6 0  0.15 0.6 0  0.2 0.6 0  0.25 0.6 0  0.3 0.6 0  0.35 0.6 0  0.4 0.6 0  0.45 0.6 0  0.5 0.6 0  0.55 0.6 0  0.6 0.6 0  0.65 0.6 0  0.7 0.6 0  0.75 0.6 0  0.8 0.6 0  0.85 0.6 0  0.9 0.6 0  0.95 0.6 0  1 0.6 0  0 0.65 0  0.05 0.65 0  0.1 0.65 0  0.15 0.65 0  0.2 0.65 0  0.25 0.65 0  0.3 0.65 0  0.35 0.65 0  0.4 0.65 0  0.45 0.65 0  0.5 0.65 0  0.55 0.65 0  0.6 0.65 0  0.65 0.65 0  0.7 0.65 0  0.75 0.65 0  0.8 0.65 0  0.85 0.65 0  0.9 0.65 0  0.95 0.65 0  1 0.65 0  0 0.7 0  0.05 0.7 0  0.1 0.7 0  0.15 0.7 0  0.2 0.7 0  0.25 0.7 0  0.3 0.7 0  0.35 0.7 0  0.4 0.7 0  0.45 0.7 0  0.5 0.7 0  0.55 0.7 0  0.6 0.7 0  0.65 0.7 0  0.7 0.7 0  0.75 0.7 0  0.8 0.7 0  0.85 0.7 0  0.9 0.7 0  0.95 0.7 0  1 0.7 0  0 0.75 0  0.05 0.75 0  0.1 0.75 0  0.15 0.75 0  0.2 0.75 0  0.25 0.75 0  0.3 0.75 0  0.35 0.75 0  0.4 0.75 0  0.45 0.75 0  0.5 0.75 0  0.55 0.75 0  0.6 0.75 0  0.65 0.75 0  0.7 0.75 0  0.75 0.75 0  0.8 0.75 0  0.85 0.75 0  0.9 0.75 0  0.95 0.75 0  1 0.75 0  0 0.8 0  0.05 0.8 0  0.1 0.8 0  0.15 0.8 0  0.2 0.8 0  0.25 0.8 0  0.3 0.8 0  0.35 0.8 0  0.4 0.8 0  0.45 0.8 0  0.5 0.8 0  0.55 0.8 0  0.6 0.8 0  0.65 0.8 0  0.7 0.8 0  0.75 0.8 0  0.8 0.8 0  0.85 0.8 0  0.9 0.8 0  0.95 0.8 0  1 0.8 0  0 0.85 0  0.05 0.85 0  0.1 0.85 0  0.15 0.85 0  0.2 0.85 0  0.25 0.85 0  0.3 0.85 0  0.35 0.85 0  0.4 0.85 0  0.45 0.85 0  0.5 0.85 0  0.55 0.85 0  0.6 0.85 0  0.65 0.85 0  0.7 0.85 0  0.75 0.85 0  0.8 0.85 0  0.85 0.85 0  0.9 0.85 0  0.95 0.85 0  1 0.85 0  0 0.9 0  0.05 0.9 0  0.1 0.9 0  0.15 0.9 0  0.2 0.9 0  0.25 0.9 0  0.3 0.9 0  0.35 0.9 0  0.4 0.9 0  0.45 0.9 0  0.5 0.9 0  0.55 0.9 0  0.6 0.9 0  0.65 0.9 0  0.7 0.9 0  0.75 0.9 0  0.8 0.9 0  0.85 0.9 0  0.9 0.9 0  0.95 0.9 0  1 0.9 0  0 0.95 0  0.05 0.95 0  0.1 0.95 0  0.15 0.95 0  0.2 0.95 0  0.25 0.95 0  0.3 0.95 0  0.35 0.95 0  0.4 0.95 0  0.45 0.95 0  0.5 0.95 0  0.55 0.95 0  0.6 0.95 0  0.65 0.95 0  0.7 0.95 0  0.75 0.95 0  0.8 0.95 0  0.85 0.95 0  0.9 0.95 0  0.95 0.95 0  1 0.95 0  0 1 0  0.05 1 0  0.1 1 0  0.15 1 0  0.2 1 0  0.25 1 0  0.3 1 0  0.35 1 0  0.4 1 0  0.45 1 0  0.5 1 0  0.55 1 0  0.6 1 0  0.65 1 0  0.7 1 0  0.75 1 0  0.8 1 0  0.85 1 0  0.9 1 0  0.95 1 0  1 1 0  </DataArray>
</Points>
<Cells>
[...]
<PointData  Vectors="f_137"> 
<DataArray  type="Float64"  Name="f_137"  NumberOfComponents="3" format="ascii">0.0000000000000000e+00 0.0000000000000000e+00 0.0000000000000000e+00  0.0000000000000000e+00 0.0000000000000000e+00 0.0000000000000000e+00  0.0000000000000000e+00 0.0000000000000000e+00 0.0000000000000000e+00  0.0000000000000000e+00 0.0000000000000000e+00 0.0000000000000000e+00  0.0000000000000000e+00 0.0000000000000000e+00 0.0000000000000000e+00  0.0000000000000000e+00 0.0000000000000000e+00 0.0000000000000000e+00  0.0000000000000000e+00 0.0000000000000000e+00 0.0000000000000000e+00  0.0000000000000000e+00 0.0000000000000000e+00 0.0000000000000000e+00  0.0000000000000000e+00 0.0000000000000000e+00 0.0000000000000000e+00  0.0000000000000000e+00 0.0000000000000000e+00 0.0000000000000000e+00  0.0000000000000000e+00 0.0000000000000000e+00 0.0000000000000000e+00  0.0000000000000000e+00 0.0000000000000000e+00 0.0000000000000000e+00  0.0000000000000000e+00 0.0000000000000000e+00 0.0000000000000000e+00  0.0000000000000000e+00 0.0000000000000000e+00 0.0000000000000000e+00  0.0000000000000000e+00 0.0000000000000000e+00 0.0000000000000000e+00  0.0000000000000000e+00 0.0000000000000000e+00 0.0000000000000000e+00  0.0000000000000000e+00 0.0000000000000000e+00 0.0000000000000000e+00  0.0000000000000000e+00 0.0000000000000000e+00 0.0000000000000000e+00  0.0000000000000000e+00 0.0000000000000000e+00 0.0000000000000000e+00  0.0000000000000000e+00 0.0000000000000000e+00 0.0000000000000000e+00  0.0000000000000000e+00 0.0000000000000000e+00 0.0000000000000000e+00  0.0000000000000000e+00 0.0000000000000000e+00 0.0000000000000000e+00  -6.5698854259444968e-04 6.4830560474983133e-04 0.0000000000000000e+00  -1.4695034555477220e-03 6.1380177084120063e-04 0.0000000000000000e+00  -2.2412026482198830e-03 5.7430437894552858e-04 0.0000000000000000e+00  -2.9538541209903737e-03 5.2060184272563774e-04 0.0000000000000000e+00  -3.5893490890487583e-03 4.5368738825437405e-04 0.0000000000000000e+00  -4.1316845803067090e-03 3.7553790479266181e-04 0.0000000000000000e+00  -4.5676149111306529e-03 2.8826685324880291e-04 0.0000000000000000e+00  -4.8867070855837221e-03 1.9406525693751339e-04 0.0000000000000000e+00  -5.0813899590973514e-03 9.5160326052747834e-05 0.0000000000000000e+00  -5.1469727917126248e-03 -6.2060294841472840e-06 0.0000000000000000e+00  -5.0816520811419246e-03 -1.0777118724268437e-04 0.0000000000000000e+00  -4.8865375799043024e-03 -2.0723180608509022e-04 0.0000000000000000e+00  -4.5657072629409290e-03 -3.0222666163826528e-04 0.0000000000000000e+00  -4.1262767569986026e-03 -3.9033516333910646e-04 0.0000000000000000e+00  -3.5784464821071505e-03 -4.6910172593083804e-04 0.0000000000000000e+00  -2.9354898677652363e-03 -5.3618343759253813e-04 0.0000000000000000e+00  -2.2137606611173206e-03 -5.9030722737931859e-04 0.0000000000000000e+00  -1.4329910688617453e-03 -6.3221219491927272e-04 0.0000000000000000e+00  -6.0986581996984248e-04 -6.0739587012459059e-04 0.0000000000000000e+00  0.0000000000000000e+00 0.0000000000000000e+00 0.0000000000000000e+00  0.0000000000000000e+00 0.0000000000000000e+00 0.0000000000000000e+00  -6.6825969158117507e-04 1.4863396121683812e-03 0.0000000000000000e+00  -1.5216437960289245e-03 1.4378567403006096e-03 0.0000000000000000e+00  -2.3384346062630215e-03 1.3467865701554615e-03 0.0000000000000000e+00  -3.0935451489030987e-03 1.2235285765181405e-03 0.0000000000000000e+00  -3.7673451648431908e-03 1.0691646528079447e-03 0.0000000000000000e+00  -4.3431437159337704e-03 8.8841635730043170e-04 0.0000000000000000e+00  -4.8070629502183927e-03 6.8622639386411869e-04 0.0000000000000000e+00  -5.1481935544906276e-03 4.6770438232450945e-04 0.0000000000000000e+00  -5.3586091295285713e-03 2.3800977212940625e-04 0.0000000000000000e+00  -5.4333318184057689e-03 2.3053027895385203e-06 0.0000000000000000e+00  -5.3703061104767276e-03 -2.3421917954179734e-04 0.0000000000000000e+00  -5.1704190891355157e-03 -4.6628542008826245e-04 0.0000000000000000e+00  -4.8375807050928697e-03 -6.8846898797226023e-04 0.0000000000000000e+00  -4.3788490293924301e-03 -8.9518216817351180e-04 0.0000000000000000e+00  -3.8045578652773555e-03 -1.0807279126371519e-03 0.0000000000000000e+00  -3.1283723428005110e-03 -1.2395317547356176e-03 0.0000000000000000e+00  -2.3671962584679482e-03 -1.3673886637063245e-03 0.0000000000000000e+00  -1.5420370065371953e-03 -1.4643486301442888e-03 0.0000000000000000e+00  -6.7548512658272247e-04 -1.4535568538281884e-03 0.0000000000000000e+00  0.0000000000000000e+00 0.0000000000000000e+00 0.0000000000000000e+00  0.0000000000000000e+00 0.0000000000000000e+00 0.0000000000000000e+00  -7.0894394079054201e-04 2.3615231260199557e-03 0.0000000000000000e+00  -1.6101481270077136e-03 2.3020180960430531e-03 0.0000000000000000e+00  -2.4714589278686753e-03 2.1546487235732993e-03 0.0000000000000000e+00  -3.2672334271221150e-03 1.9570040985144241e-03 0.0000000000000000e+00  -3.9762510522196211e-03 1.7100268660274372e-03 0.0000000000000000e+00  -4.5812696949436215e-03 1.4211003974707228e-03 0.0000000000000000e+00  -5.0681446849887056e-03 1.0982871479247557e-03 0.0000000000000000e+00  -5.4259055445749459e-03 7.4976305255865130e-04 0.0000000000000000e+00  -5.6466658236326954e-03 3.8366925196096479e-04 0.0000000000000000e+00  -5.7254765365237674e-03 8.0658723144062331e-06 0.0000000000000000e+00  -5.6602225598177567e-03 -3.6899229226081538e-04 0.0000000000000000e+00  -5.4516181167154855e-03 -7.3930941167174298e-04 0.0000000000000000e+00  -5.1033227548594358e-03 -1.0944049951118664e-03 0.0000000000000000e+00  -4.6221598620254352e-03 -1.4254433714703824e-03 0.0000000000000000e+00  -4.0183780664372684e-03 -1.7232923711802133e-03 0.0000000000000000e+00  -3.3058468357109231e-03 -1.9788500247784413e-03 0.0000000000000000e+00  -2.5021080175273332e-03 -2.1848150061176421e-03 0.0000000000000000e+00  -1.6295739930280793e-03 -2.3406482345386267e-03 0.0000000000000000e+00  -7.1099898845806877e-04 -2.3382349874500781e-03 0.0000000000000000e+00  0.0000000000000000e+00 0.0000000000000000e+00 0.0000000000000000e+00  0.0000000000000000e+00 0.0000000000000000e+00 0.0000000000000000e+00  -7.6981337112525200e-04 3.3000591448349888e-03 0.0000000000000000e+00  -1.7453004030861228e-03 3.2276885293617795e-03 0.0000000000000000e+00  -2.6766874092983084e-03 3.0195402479988374e-03 0.0000000000000000e+00  -3.5353408924869083e-03 2.7409054438932846e-03 0.0000000000000000e+00  -4.2986984692352636e-03 2.3937468148499375e-03 0.0000000000000000e+00  -4.9486170707463912e-03 1.9885571673558681e-03 0.0000000000000000e+00  -5.4706283116535840e-03 1.5368493520365538e-03 0.0000000000000000e+00  -5.8538000870044940e-03 1.0500866051441592e-03 0.0000000000000000e+00  -6.0904290575376479e-03 5.3944401650823676e-04 0.0000000000000000e+00  -6.1757001179265089e-03 1.5797044911867307e-05 0.0000000000000000e+00  -6.1074468909993167e-03 -5.1009060172514230e-04 0.0000000000000000e+00  -5.8860989984298295e-03 -1.0272588384526067e-03 0.0000000000000000e+00  -5.5148514509990232e-03 -1.5242405311910285e-03 0.0000000000000000e+00  -5.0000355067986611e-03 -1.9888662648306341e-03 0.0000000000000000e+00  -4.3516089485499286e-03 -2.4082842171930310e-03 0.0000000000000000e+00  -3.5836132786880737e-03 -2.7693916170260274e-03 0.0000000000000000e+00  -2.7144710800538962e-03 -3.0612083702219756e-03 0.0000000000000000e+00  -1.7684893659971606e-03 -3.2819753253116282e-03 0.0000000000000000e+00  -7.7003053663254829e-04 -3.2890601584749267e-03 0.0000000000000000e+00  0.0000000000000000e+00 0.0000000000000000e+00 0.0000000000000000e+00  0.0000000000000000e+00 0.0000000000000000e+00 0.0000000000000000e+00  -8.5248986918297711e-04 4.3281022197391291e-03 0.0000000000000000e+00  -1.9292308456335307e-03 4.2395467172186571e-03 0.0000000000000000e+00  -2.9558438632207502e-03 3.9629475443467262e-03 0.0000000000000000e+00  -3.8994824530058517e-03 3.5937571940789993e-03 0.0000000000000000e+00  -4.7355795625346692e-03 3.1354675020170272e-03 0.0000000000000000e+00  -5.4450315797471152e-03 2.6025105057243801e-03 0.0000000000000000e+00  -6.0132231694876278e-03 2.0104226059902085e-03 0.0000000000000000e+00  -6.4295987233655219e-03 1.3742501192030067e-03 0.0000000000000000e+00  -6.6869959191134636e-03 7.0822400910588719e-04 0.0000000000000000e+00  -6.7809840690983758e-03 2.5832245581846074e-05 0.0000000000000000e+00  -6.7094019643463097e-03 -6.5978164346357638e-04 0.0000000000000000e+00  -6.4722201717967234e-03 -1.3352252317983598e-03 0.0000000000000000e+00  -6.0717843353195796e-03 -1.9862477155741828e-03 0.0000000000000000e+00  -5.5134198437001613e-03 -2.5972995743374309e-03 0.0000000000000000e+00  -4.8062903047136965e-03 -3.1514296460524770e-03 0.0000000000000000e+00  -3.9642949245283915e-03 -3.6308042079999788e-03 0.0000000000000000e+00  -3.0067907405488680e-03 -4.0197980491753866e-03 0.0000000000000000e+00  -1.9606271761409325e-03 -4.3146102014745011e-03 0.0000000000000000e+00  -8.5289154775043230e-04 -4.3332110888457424e-03 0.0000000000000000e+00  0.0000000000000000e+00 0.0000000000000000e+00 0.0000000000000000e+00  0.0000000000000000e+00 0.0000000000000000e+00 0.0000000000000000e+00  -9.6043647347950967e-04 5.4750262441017189e-03 0.0000000000000000e+00  -2.1694239861659911e-03 5.3657488310401933e-03 0.0000000000000000e+00  -3.3192786860436240e-03 5.0097439606085906e-03 0.0000000000000000e+00  -4.3717484519977959e-03 4.5363783554119783e-03 0.0000000000000000e+00  -5.2997260600300185e-03 3.9517722909465430e-03 0.0000000000000000e+00  -6.0832325206865018e-03 3.2754855924953326e-03 0.0000000000000000e+00  -6.7080243976433062e-03 2.5279323354357513e-03 0.0000000000000000e+00  -7.1646388554067490e-03 1.7281305994274389e-03 0.0000000000000000e+00  -7.4471468822976646e-03 8.9330249451794331e-04 0.0000000000000000e+00  -7.5519855972378033e-03 3.9127886314111276e-05 0.0000000000000000e+00  -7.4771464403897347e-03 -8.1949458140526056e-04 0.0000000000000000e+00  -7.2218946077045841e-03 -1.6673822592302536e-03 0.0000000000000000e+00  -6.7871049430224695e-03 -2.4879581901212332e-03 0.0000000000000000e+00  -6.1762056314578614e-03 -3.2623700917876631e-03 0.0000000000000000e+00  -5.3966031454138084e-03 -3.9691097527564164e-03 0.0000000000000000e+00  -4.4612982022351495e-03 -4.5845598878140699e-03 0.0000000000000000e+00  -3.3903471751256446e-03 -5.0869516803663042e-03 0.0000000000000000e+00  -2.2137631223668420e-03 -5.4690227098436912e-03 0.0000000000000000e+00  -9.6255206922002401e-04 -5.5024677156987421e-03 0.0000000000000000e+00  0.0000000000000000e+00 0.0000000000000000e+00 0.0000000000000000e+00  0.0000000000000000e+00 0.0000000000000000e+00 0.0000000000000000e+00  -1.0986213470763483e-03 6.7753826829157742e-03 0.0000000000000000e+00  -2.4763830537768037e-03 6.6387141039074889e-03 0.0000000000000000e+00  -3.7817895554315010e-03 6.1877394214104224e-03 0.0000000000000000e+00  -4.9694586233171543e-03 5.5911561594592964e-03 0.0000000000000000e+00  -6.0092985705637453e-03 4.8595569152781130e-03 0.0000000000000000e+00  -6.8809270903955090e-03 4.0194596326262174e-03 0.0000000000000000e+00  -7.5715525926490961e-03 3.0973791889928521e-03 0.0000000000000000e+00  -8.0741229226726011e-03 2.1167670881631897e-03 0.0000000000000000e+00  -8.3851550345560334e-03 1.0975872525271566e-03 0.0000000000000000e+00  -8.5027948726391616e-03 5.6916257250241768e-05 0.0000000000000000e+00  -8.4254817174095002e-03 -9.8970221802256709e-04 0.0000000000000000e+00  -8.1514388103477217e-03 -2.0264529966062786e-03 0.0000000000000000e+00  -7.6791079568075899e-03 -3.0353455548224792e-03 0.0000000000000000e+00  -7.0085520742290235e-03 -3.9945872334043904e-03 0.0000000000000000e+00  -6.1437128064377204e-03 -4.8776471472070596e-03 0.0000000000000000e+00  -5.0951701096426678e-03 -5.6536698542488410e-03 0.0000000000000000e+00  -3.8828789175252062e-03 -6.2924462060464752e-03 0.0000000000000000e+00  -2.5405310832528126e-03 -6.7808496730956472e-03 0.0000000000000000e+00  -1.1046211414949762e-03 -6.8348349983088797e-03 0.0000000000000000e+00  0.0000000000000000e+00 0.0000000000000000e+00 0.0000000000000000e+00  0.0000000000000000e+00 0.0000000000000000e+00 0.0000000000000000e+00  -1.2742780579564426e-03 8.2710231103159775e-03 0.0000000000000000e+00  -2.8652419734114518e-03 8.0968592188422686e-03 0.0000000000000000e+00  -4.3642315791332957e-03 7.5285960155614551e-03 0.0000000000000000e+00  -5.7163984166456279e-03 6.7820681117639588e-03 0.0000000000000000e+00  -6.8883948003303211e-03 5.8753951054405463e-03 0.0000000000000000e+00  -7.8606106061138749e-03 4.8448465994965573e-03 0.0000000000000000e+00  -8.6237368142971314e-03 3.7247494840171062e-03 0.0000000000000000e+00  -9.1754051590208444e-03 2.5434646706138050e-03 0.0000000000000000e+00  -9.5165786227168377e-03 1.3230886621605675e-03 0.0000000000000000e+00  -9.6484836589974185e-03 8.0689511260017990e-05 0.0000000000000000e+00  -9.5705356365923411e-03 -1.1694085215462073e-03 0.0000000000000000e+00  -9.2794858685793201e-03 -2.4127252198060519e-03 0.0000000000000000e+00  -8.7699257394235619e-03 -3.6315342839568347e-03 0.0000000000000000e+00  -8.0362452972956404e-03 -4.8020387796505843e-03 0.0000000000000000e+00  -7.0760361687412874e-03 -5.8923931017539543e-03 0.0000000000000000e+00  -5.8946107953433430e-03 -6.8625969027204664e-03 0.0000000000000000e+00  -4.5099255839405571e-03 -7.6705251998214607e-03 0.0000000000000000e+00  -2.9595236871227540e-03 -8.2931354465317336e-03 0.0000000000000000e+00  -1.2874735401395194e-03 -8.3772938658716704e-03 0.0000000000000000e+00  0.0000000000000000e+00 0.0000000000000000e+00 0.0000000000000000e+00  0.0000000000000000e+00 0.0000000000000000e+00 0.0000000000000000e+00  -1.4981665904380387e-03 1.0014442322601040e-02 0.0000000000000000e+00  -3.3581892754999260e-03 9.7870286672477273e-03 0.0000000000000000e+00  -5.0965026774790877e-03 9.0688736879084696e-03 0.0000000000000000e+00  -6.6455892040822645e-03 8.1343601367431344e-03 0.0000000000000000e+00  -7.9690702256152296e-03 7.0142155218639408e-03 0.0000000000000000e+00  -9.0505871930886099e-03 5.7586871408479342e-03 0.0000000000000000e+00  -9.8879450752388156e-03 4.4122097287080872e-03 0.0000000000000000e+00  -1.0487212653846783e-02 3.0083697713024836e-03 0.0000000000000000e+00  -1.0856937803130266e-02 1.5701225503609118e-03 0.0000000000000000e+00  -1.1003536062499526e-02 1.1217015118937961e-04 0.0000000000000000e+00  -1.0928271331560392e-02 -1.3553542317430644e-03 0.0000000000000000e+00  -1.0625934079023200e-02 -2.8224697105044558e-03 0.0000000000000000e+00  -1.0085311064134081e-02 -4.2746106767699559e-03 0.0000000000000000e+00  -9.2916767512064308e-03 -5.6879873231005674e-03 0.0000000000000000e+00  -8.2315956822288580e-03 -7.0257468474007297e-03 0.0000000000000000e+00  -6.8999992449923844e-03 -8.2364866595690586e-03 0.0000000000000000e+00  -5.3088048060601079e-03 -9.2610143880694964e-03 0.0000000000000000e+00  -3.4986041095240736e-03 -1.0059518979025284e-02 0.0000000000000000e+00  -1.5237630345274814e-03 -1.0190248402874112e-02 0.0000000000000000e+00  0.0000000000000000e+00 0.0000000000000000e+00 0.0000000000000000e+00  0.0000000000000000e+00 0.0000000000000000e+00 0.0000000000000000e+00  -1.7867431892864907e-03 1.2074033721036154e-02 0.0000000000000000e+00  -3.9885704984321691e-03 1.1768056886641448e-02 0.0000000000000000e+00  -6.0223546180493519e-03 1.0851152125542362e-02 0.0000000000000000e+00  -7.8035454612484685e-03 9.6734348461949369e-03 0.0000000000000000e+00  -9.2941992319064519e-03 8.2867125239496509e-03 0.0000000000000000e+00  -1.0486159653775131e-02 6.7614987594065163e-03 0.0000000000000000e+00  -1.1390658820405611e-02 5.1551625765288616e-03 0.0000000000000000e+00  -1.2028176004562602e-02 3.5062318289757234e-03 0.0000000000000000e+00  -1.2419515035910210e-02 1.8360480080847140e-03 0.0000000000000000e+00  -1.2579306914680198e-02 1.5316636760051781e-04 0.0000000000000000e+00  -1.2511993068541895e-02 -1.5409552584341882e-03 0.0000000000000000e+00  -1.2209967124266072e-02 -3.2456355631638044e-03 0.0000000000000000e+00  -1.1653774836793203e-02 -4.9541882696917811e-03 0.0000000000000000e+00  -1.0814790809645602e-02 -6.6467517027423159e-03 0.0000000000000000e+00  -9.6613195212737809e-03 -8.2833023310785112e-03 0.0000000000000000e+00  -8.1689949370628932e-03 -9.7989966502574181e-03 0.0000000000000000e+00  -6.3354220729545047e-03 -1.1110278404526761e-02 0.0000000000000000e+00  -4.2008707081719384e-03 -1.2148992569093107e-02 0.0000000000000000e+00  -1.8332885306849075e-03 -1.2354807838400402e-02 0.0000000000000000e+00  0.0000000000000000e+00 0.0000000000000000e+00 0.0000000000000000e+00  0.0000000000000000e+00 0.0000000000000000e+00 0.0000000000000000e+00  -2.1660820367521653e-03 1.4542626813854497e-02 0.0000000000000000e+00  -4.8080640223207476e-03 1.4116121294926244e-02 0.0000000000000000e+00  -7.2074365124380566e-03 1.2925003148440566e-02 0.0000000000000000e+00  -9.2569100159863704e-03 1.1422126876696801e-02 0.0000000000000000e+00  -1.0921449378351182e-02 9.6945235440347131e-03 0.0000000000000000e+00  -1.2210796855213609e-02 7.8420042941147860e-03 0.0000000000000000e+00  -1.3160382275668608e-02 5.9376798707169364e-03 0.0000000000000000e+00  -1.3814225118079474e-02 4.0231058452887998e-03 0.0000000000000000e+00  -1.4211866126113103e-02 2.1134179095026258e-03 0.0000000000000000e+00  -1.4380091558241010e-02 2.0522710470991234e-04 0.0000000000000000e+00  -1.4328343458216484e-02 -1.7150250659582343e-03 0.0000000000000000e+00  -1.4046479809471648e-02 -3.6627418955715572e-03 0.0000000000000000e+00  -1.3504281482913589e-02 -5.6463183290281806e-03 0.0000000000000000e+00  -1.2653319954314663e-02 -7.6569313858079191e-03 0.0000000000000000e+00  -1.1433175428888217e-02 -9.6566353658622973e-03 0.0000000000000000e+00  -9.7851903462280749e-03 -1.1567121141743681e-02 0.0000000000000000e+00  -7.6760454402750545e-03 -1.3271243658622721e-02 0.0000000000000000e+00  -5.1356703341454753e-03 -1.4653168481396178e-02 0.0000000000000000e+00  -2.2484681575213232e-03 -1.4985349581808810e-02 0.0000000000000000e+00  0.0000000000000000e+00 0.0000000000000000e+00 0.0000000000000000e+00  0.0000000000000000e+00 0.0000000000000000e+00 0.0000000000000000e+00  -2.6792517180566221e-03 1.7552028808563578e-02 0.0000000000000000e+00  -5.8996407089308587e-03 1.6932881979414484e-02 0.0000000000000000e+00  -8.7530291638248554e-03 1.5347017328796940e-02 0.0000000000000000e+00  -1.1102764380915661e-02 1.3394599814432402e-02 0.0000000000000000e+00  -1.2928460564739022e-02 1.1221412127007502e-02 0.0000000000000000e+00  -1.4276663260070382e-02 8.9685705487892037e-03 0.0000000000000000e+00  -1.5225015253815205e-02 6.7257916161663983e-03 0.0000000000000000e+00  -1.5854244477091894e-02 4.5318709770967615e-03 0.0000000000000000e+00  -1.6230654912097270e-02 2.3875213107675580e-03 0.0000000000000000e+00  -1.6397510260674469e-02 2.6899005071500705e-04 0.0000000000000000e+00  -1.6371367839260669e-02 -1.8605170228543928e-03 0.0000000000000000e+00  -1.6140121426105165e-02 -4.0411656850060131e-03 0.0000000000000000e+00  -1.5661242875560942e-02 -6.3065552803671862e-03 0.0000000000000000e+00  -1.4860799952171141e-02 -8.6707711854743519e-03 0.0000000000000000e+00  -1.3636351488148075e-02 -1.1110124577673405e-02 0.0000000000000000e+00  -1.1871028588462932e-02 -1.3539532734740890e-02 0.0000000000000000e+00  -9.4683889385990781e-03 -1.5800350774625625e-02 0.0000000000000000e+00  -6.4202161575778755e-03 -1.7697712223292403e-02 0.0000000000000000e+00  -2.8248076888387399e-03 -1.8251557472475068e-02 0.0000000000000000e+00  0.0000000000000000e+00 0.0000000000000000e+00 0.0000000000000000e+00  0.0000000000000000e+00 0.0000000000000000e+00 0.0000000000000000e+00  -3.4003708265140813e-03 2.1299137035603845e-02 0.0000000000000000e+00  -7.4020140234625819e-03 2.0357689454441042e-02 0.0000000000000000e+00  -1.0819964100119145e-02 1.8177648335495560e-02 0.0000000000000000e+00  -1.3484304300959239e-02 1.5583038171465821e-02 0.0000000000000000e+00  -1.5418539109550712e-02 1.2817285344068872e-02 0.0000000000000000e+00  -1.674283558231144