<?xml version="1.0"?>
<VTKFile type="UnstructuredGrid"  version="0.1"  >
<UnstructuredGrid>
<Piece  NumberOfPoints="441" NumberOfCells="800">
<Points>
<DataArray  type="Float64"  NumberOfComponents="3"  format="ascii">0 0 0  0.05 0 0  0.1 0 0  0.15 0 0  0.2 0 0  0.25 0 0  0.3 0 0  0.35 0 0  0.4 0 0  0.45 0 0  0.5 0 0  0.55 0 0  0.6 0 0  0.65 0 0  0.7 0 0  0.75 0 0  0.8 0 0  0.85 0 0  0.9 0 0  0.95 0 0  1 0 0  0 0.05 0  0.05 0.05 0  0.1 0.05 0  0.15 0.05 0  0.2 0.05 0  0.25 0.05 0  0.3 0.05 0  0.35 0.05 0  0.4 0.05 0  0.45 0.05 0  0.5 0.05 0  0.55 0.05 0  0.6 0.05 0  0.65 0.05 0  0.7 0.05 0  0.75 0.05 0  0.8 0.05 0  0.85 0.05 0  0.9 0.05 0  0.95 0.05 0  1 0.05 0  0 0.1 0  0.05 0.1 0  0.1 0.1 0  0.15 0.1 0  0.2 0.1 0  0.25 0.1 0  0.3 0.1 0  0.35 0.1 0  0.4 0.1 0  0.45 0.1 0  0.5 0.1 0  0.55 0.1 0  0.6 0.1 0  0.65 0.1 0  0.7 0.1 0  0.75 0.1 0  0.8 0.1 0  0.85 0.1 0  0.9 0.1 0  0.95 0.1 0  1 0.1 0  0 0.15 0  0.05 0.15 0  0.1 0.15 0  0.15 0.15 0  0.2 0.15 0  0.25 0.15 0  0.3 0.15 0  0.35 0.15 0  0.4 0.15 0  0.45 0.15 0  0.5 0.15 0  0.55 0.15 0  0.6 0.15 0  0.65 0.15 0  0.7 0.15 0  0.75 0.15 0  0.8 0.15 0  0.85 0.15 0  0.9 0.15 0  0.95 0.15 0  1 0.15 0  0 0.2 0  0.05 0.2 0  0.1 0.2 0  0.15 0.2 0  0.2 0.2 0  0.25 0.2 0  0.3 0.2 0  0.35 0.2 0  0.4 0.2 0  0.45 0.2 0  0.5 0.2 0  0.55 0.2 0  0.6 0.2 0  0.65 0.2 0  0.7 0.2 0  0.75 0.2 0  0.8 0.2 0  0.85 0.2 0  0.9 0.2 0  0.95 0.2 0  1 0.2 0  0 0.25 0  0.05 0.25 0  0.1 0.25 0  0.15 0.25 0  0.2 0.25 0  0.25 0.25 0  0.3 0.25 0  0.35 0.25 0  0.4 0.25 0  0.45 0.25 0  0.5 0.25 0  0.55 0.25 0  0.6 0.25 0  0.65 0.25 0  0.7 0.25 0  0.75 0.25 0  0.8 0.25 0  0.85 0.25 0  0.9 0.25 0  0.95 0.25 0  1 0.25 0  0 0.3 0  0.05 0.3 0  0.1 0.3 0  0.15 0.3 0  0.2 0.3 0  0.25 0.3 0  0.3 0.3 0  0.35 0.3 0  0.4 0.3 0  0.45 0.3 0  0.5 0.3 0  0.55 0.3 0  0.6 0.3 0  0.65 0.3 0  0.7 0.3 0  0.75 0.3 0  0.8 0.3 0  0.85 0.3 0  0.9 0.3 0  0.95 0.3 0  1 0.3 0  0 0.35 0  0.05 0.35 0  0.1 0.35 0  0.15 0.35 0  0.2 0.35 0  0.25 0.35 0  0.3 0.35 0  0.35 0.35 0  0.4 0.35 0  0.45 0.35 0  0.5 0.35 0  0.55 0.35 0  0.6 0.35 0  0.65 0.35 0  0.7 0.35 0  0.75 0.35 0  0.8 0.35 0  0.85 0.35 0  0.9 0.35 0  0.95 0.35 0  1 0.35 0  0 0.4 0  0.05 0.4 0  0.1 0.4 0  0.15 0.4 0  0.2 0.4 0  0.25 0.4 0  0.3 0.4 0  0.35 0.4 0  0.4 0.4 0  0.45 0.4 0  0.5 0.4 0  0.55 0.4 0  0.6 0.4 0  0.65 0.4 0  0.7 0.4 0  0.75 0.4 0  0.8 0.4 0  0.85 0.4 0  0.9 0.4 0  0.95 0.4 0  1 0.4 0  0 0.45 0  0.05 0.45 0  0.1 0.45 0  0.15 0.45 0  0.2 0.45 0  0.25 0.45 0  0.3 0.45 0  0.35 0.45 0  0.4 0.45 0  0.45 0.45 0  0.5 0.45 0  0.55 0.45 0  0.6 0.45 0  0.65 0.45 0  0.7 0.45 0  0.75 0.45 0  0.8 0.45 0  0.85 0.45 0  0.9 0.45 0  0.95 0.45 0  1 0.45 0  0 0.5 0  0.05 0.5 0  0.1 0.5 0  0.15 0.5 0  0.2 0.5 0  0.25 0.5 0  0.3 0.5 0  0.35 0.5 0  0.4 0.5 0  0.45 0.5 0  0.5 0.5 0  0.55 0.5 0  0.6 0.5 0  0.65 0.5 0  0.7 0.5 0  0.75 0.5 0  0.8 0.5 0  0.85 0.5 0  0.9 0.5 0  0.95 0.5 0  1 0.5 0  0 0.55 0  0.05 0.55 0  0.1 0.55 0  0.15 0.55 0  0.2 0.55 0  0.25 0.55 0  0.3 0.55 0  0.35 0.55 0  0.4 0.55 0  0.45 0.55 0  0.5 0.55 0  0.55 0.55 0  0.6 0.55 0  0.65 0.55 0  0.7 0.55 0  0.75 0.55 0  0.8 0.55 0  0.85 0.55 0  0.9 0.55 0  0.95 0.55 0  1 0.55 0  0 0.6 0  0.05 0.6 0  0.1 0.6 0  0.15 0.6 0  0.2 0.6 0  0.25 0.6 0  0.3 0.6 0  0.35 0.6 0  0.4 0.6 0  0.45 0.6 0  0.5 0.6 0  0.55 0.6 0  0.6 0.6 0  0.65 0.6 0  0.7 0.6 0  0.75 0.6 0  0.8 0.6 0  0.85 0.6 0  0.9 0.6 0  0.95 0.6 0  1 0.6 0  0 0.65 0  0.05 0.65 0  0.1 0.65 0  0.15 0.65 0  0.2 0.65 0  0.25 0.65 0  0.3 0.65 0  0.35 0.65 0  0.4 0.65 0  0.45 0.65 0  0.5 0.65 0  0.55 0.65 0  0.6 0.65 0  0.65 0.65 0  0.7 0.65 0  0.75 0.65 0  0.8 0.65 0  0.85 0.65 0  0.9 0.65 0  0.95 0.65 0  1 0.65 0  0 0.7 0  0.05 0.7 0  0.1 0.7 0  0.15 0.7 0  0.2 0.7 0  0.25 0.7 0  0.3 0.7 0  0.35 0.7 0  0.4 0.7 0  0.45 0.7 0  0.5 0.7 0  0.55 0.7 0  0.6 0.7 0  0.65 0.7 0  0.7 0.7 0  0.75 0.7 0  0.8 0.7 0  0.85 0.7 0  0.9 0.7 0  0.95 0.7 0  1 0.7 0  0 0.75 0  0.05 0.75 0  0.1 0.75 0  0.15 0.75 0  0.2 0.75 0  0.25 0.75 0  0.3 0.75 0  0.35 0.75 0  0.4 0.75 0  0.45 0.75 0  0.5 0.75 0  0.55 0.75 0  0.6 0.75 0  0.65 0.75 0  0.7 0.75 0  0.75 0.75 0  0.8 0.75 0  0.85 0.75 0  0.9 0.75 0  0.95 0.75 0  1 0.75 0  0 0.8 0  0.05 0.8 0  0.1 0.8 0  0.15 0.8 0  0.2 0.8 0  0.25 0.8 0  0.3 0.8 0  0.35 0.8 0  0.4 0.8 0  0.45 0.8 0  0.5 0.8 0  0.55 0.8 0  0.6 0.8 0  0.65 0.8 0  0.7 0.8 0  0.75 0.8 0  0.8 0.8 0  0.85 0.8 0  0.9 0.8 0  0.95 0.8 0  1 0.8 0  0 0.85 0  0.05 0.85 0  0.1 0.85 0  0.15 0.85 0  0.2 0.85 0  0.25 0.85 0  0.3 0.85 0  0.35 0.85 0  0.4 0.85 0  0.45 0.85 0  0.5 0.85 0  0.55 0.85 0  0.6 0.85 0  0.65 0.85 0  0.7 0.85 0  0.75 0.85 0  0.8 0.85 0  0.85 0.85 0  0.9 0.85 0  0.95 0.85 0  1 0.85 0  0 0.9 0  0.05 0.9 0  0.1 0.9 0  0.15 0.9 0  0.2 0.9 0  0.25 0.9 0  0.3 0.9 0  0.35 0.9 0  0.4 0.9 0  0.45 0.9 0  0.5 0.9 0  0.55 0.9 0  0.6 0.9 0  0.65 0.9 0  0.7 0.9 0  0.75 0.9 0  0.8 0.9 0  0.85 0.9 0  0.9 0.9 0  0.95 0.9 0  1 0.9 0  0 0.95 0  0.05 0.95 0  0.1 0.95 0  0.15 0.95 0  0.2 0.95 0  0.25 0.95 0  0.3 0.95 0  0.35 0.95 0  0.4 0.95 0  0.45 0.95 0  0.5 0.95 0  0.55 0.95 0  0.6 0.95 0  0.65 0.95 0  0.7 0.95 0  0.75 0.95 0  0.8 0.95 0  0.85 0.95 0  0.9 0.95 0  0.95 0.95 0  1 0.95 0  0 1 0  0.05 1 0  0.1 1 0  0.15 1 0  0.2 1 0  0.25 1 0  0.3 1 0  0.35 1 0  0.4 1 0  0.45 1 0  0.5 1 0  0.55 1 0  0.6 1 0  0.65 1 0  0.7 1 0  0.75 1 0  0.8 1 0  0.85 1 0  0.9 1 0  0.95 1 0  1 1 0  </DataArray>
</Points>
<Cells>
[...]
<PointData  Vectors="f_137"> 
<DataArray  type="Float64"  Name="f_137"  NumberOfComponents="3" format="ascii">0.0000000000000000e+00 0.0000000000000000e+00 0.0000000000000000e+00  0.0000000000000000e+00 0.0000000000000000e+00 0.0000000000000000e+00  0.0000000000000000e+00 0.0000000000000000e+00 0.0000000000000000e+00  0.0000000000000000e+00 0.0000000000000000e+00 0.0000000000000000e+00  0.0000000000000000e+00 0.0000000000000000e+00 0.0000000000000000e+00  0.0000000000000000e+00 0.0000000000000000e+00 0.0000000000000000e+00  0.0000000000000000e+00 0.0000000000000000e+00 0.0000000000000000e+00  0.0000000000000000e+00 0.0000000000000000e+00 0.0000000000000000e+00  0.0000000000000000e+00 0.0000000000000000e+00 0.0000000000000000e+00  0.0000000000000000e+00 0.0000000000000000e+00 0.0000000000000000e+00  0.0000000000000000e+00 0.0000000000000000e+00 0.0000000000000000e+00  0.0000000000000000e+00 0.0000000000000000e+00 0.0000000000000000e+00  0.0000000000000000e+00 0.0000000000000000e+00 0.0000000000000000e+00  0.0000000000000000e+00 0.0000000000000000e+00 0.0000000000000000e+00  0.0000000000000000e+00 0.0000000000000000e+00 0.0000000000000000e+00  0.0000000000000000e+00 0.0000000000000000e+00 0.0000000000000000e+00  0.0000000000000000e+00 0.0000000000000000e+00 0.0000000000000000e+00  0.0000000000000000e+00 0.0000000000000000e+00 0.0000000000000000e+00  0.0000000000000000e+00 0.0000000000000000e+00 0.0000000000000000e+00  0.0000000000000000e+00 0.0000000000000000e+00 0.0000000000000000e+00  0.0000000000000000e+00 0.0000000000000000e+00 0.0000000000000000e+00  0.0000000000000000e+00 0.0000000000000000e+00 0.0000000000000000e+00  -6.7929510768933825e-04 6.7061963724411274e-04 0.0000000000000000e+00  -1.5387064772979919e-03 6.3563802815732554e-04 0.0000000000000000e+00  -2.3544766006046778e-03 5.9547299681618265e-04 0.0000000000000000e+00  -3.1083011447731752e-03 5.4028098785633652e-04 0.0000000000000000e+00  -3.7809490760580349e-03 4.7135203880395096e-04 0.0000000000000000e+00  -4.3554143421190130e-03 3.9071456672080815e-04 0.0000000000000000e+00  -4.8176261742969625e-03 3.0053759468212237e-04 0.0000000000000000e+00  -5.1564634224616716e-03 2.0307607988701441e-04 0.0000000000000000e+00  -5.3638183427525627e-03 1.0062882578598389e-04 0.0000000000000000e+00  -5.4346240396221752e-03 -4.4835917146812177e-06 0.0000000000000000e+00  -5.3668685119261910e-03 -1.0991200287167803e-04 0.0000000000000000e+00  -5.1616298320240773e-03 -2.1325744392522910e-04 0.0000000000000000e+00  -4.8231425646593365e-03 -3.1205352334221328e-04 0.0000000000000000e+00  -4.3588794873290065e-03 -4.0376603726292805e-04 0.0000000000000000e+00  -3.7796073264025390e-03 -4.8581303837893982e-04 0.0000000000000000e+00  -3.0993776938176604e-03 -5.5565875333443834e-04 0.0000000000000000e+00  -2.3355618001641865e-03 -6.1165833257972153e-04 0.0000000000000000e+00  -1.5092883550422921e-03 -6.5498506240931943e-04 0.0000000000000000e+00  -6.3722115502596016e-04 -6.3463619363423381e-04 0.0000000000000000e+00  0.0000000000000000e+00 0.0000000000000000e+00 0.0000000000000000e+00  0.0000000000000000e+00 0.0000000000000000e+00 0.0000000000000000e+00  -6.9075274801317157e-04 1.5563660750333064e-03 0.0000000000000000e+00  -1.5887723524579942e-03 1.5028006432305744e-03 0.0000000000000000e+00  -2.4480694438993780e-03 1.4096208225294214e-03 0.0000000000000000e+00  -3.2428912941189886e-03 1.2815023254866287e-03 0.0000000000000000e+00  -3.9525080472150205e-03 1.1206867560961298e-03 0.0000000000000000e+00  -4.5593014011524576e-03 9.3214479069256078e-04 0.0000000000000000e+00  -5.0485939059410866e-03 7.2100051491933608e-04 0.0000000000000000e+00  -5.4088122487278741e-03 4.9256908997170998e-04 0.0000000000000000e+00  -5.6315080769276044e-03 2.5223043304948347e-04 0.0000000000000000e+00  -5.7113293423861743e-03 5.3816026173738091e-06 0.0000000000000000e+00  -5.6460005911697286e-03 -2.4253684724413803e-04 0.0000000000000000e+00  -5.4363529039535364e-03 -4.8597553501259790e-04 0.0000000000000000e+00  -5.0864177604413785e-03 -7.1921556824461666e-04 0.0000000000000000e+00  -4.6035686986020787e-03 -9.3635235941474135e-04 0.0000000000000000e+00  -3.9986660334091172e-03 -1.1313485171290845e-03 0.0000000000000000e+00  -3.2861243914048318e-03 -1.2982057041131710e-03 0.0000000000000000e+00  -2.4837831918895930e-03 -1.4319716441510639e-03 0.0000000000000000e+00  -1.6141240117225162e-03 -1.5324683537857695e-03 0.0000000000000000e+00  -7.0029962453795600e-04 -1.5312101533432529e-03 0.0000000000000000e+00  0.0000000000000000e+00 0.0000000000000000e+00 0.0000000000000000e+00  0.0000000000000000e+00 0.0000000000000000e+00 0.0000000000000000e+00  -7.3266472723660520e-04 2.4800893661765929e-03 0.0000000000000000e+00  -1.6818200713763004e-03 2.4114421485436832e-03 0.0000000000000000e+00  -2.5883388200564745e-03 2.2599960340924942e-03 0.0000000000000000e+00  -3.4263979266293690e-03 2.0541516321232710e-03 0.0000000000000000e+00  -4.1735220647696721e-03 1.7961759098374581e-03 0.0000000000000000e+00  -4.8115225750004383e-03 1.4940195584920691e-03 0.0000000000000000e+00  -5.3254173163168996e-03 1.1560711604542905e-03 0.0000000000000000e+00  -5.7035480396509033e-03 7.9085314781313608e-04 0.0000000000000000e+00  -5.9374887298135302e-03 4.0687393522300015e-04 0.0000000000000000e+00  -6.0218983160851645e-03 1.2578597990883213e-05 0.0000000000000000e+00  -5.9544197524214184e-03 -3.8356997427799709e-04 0.0000000000000000e+00  -5.7356840095211170e-03 -7.7293549834105070e-04 0.0000000000000000e+00  -5.3694420752857736e-03 -1.1465565216625712e-03 0.0000000000000000e+00  -4.8628064211582419e-03 -1.4950741211736292e-03 0.0000000000000000e+00  -4.2265393140827143e-03 -1.8087898465464611e-03 0.0000000000000000e+00  -3.4752690352217548e-03 -2.0779148271194152e-03 0.0000000000000000e+00  -2.6275131895061314e-03 -2.2939912411747906e-03 0.0000000000000000e+00  -1.7073175884772516e-03 -2.4559086715011955e-03 0.0000000000000000e+00  -7.3767045306149333e-04 -2.4676737991947504e-03 0.0000000000000000e+00  0.0000000000000000e+00 0.0000000000000000e+00 0.0000000000000000e+00  0.0000000000000000e+00 0.0000000000000000e+00 0.0000000000000000e+00  -7.9510733473080034e-04 3.4703872208432561e-03 0.0000000000000000e+00  -1.8222902056458218e-03 3.3845937749540280e-03 0.0000000000000000e+00  -2.8025682333954875e-03 3.1704003262456801e-03 0.0000000000000000e+00  -3.7068770455818824e-03 2.8799767238519747e-03 0.0000000000000000e+00  -4.5113794044101992e-03 2.5170053584871021e-03 0.0000000000000000e+00  -5.1969166932858100e-03 2.0928207320917483e-03 0.0000000000000000e+00  -5.7481495849317846e-03 1.6194376191808956e-03 0.0000000000000000e+00  -6.1534359483886294e-03 1.1088153919554965e-03 0.0000000000000000e+00  -6.4045164055683010e-03 5.7264356278350921e-04 0.0000000000000000e+00  -6.4961633682247451e-03 2.2327682644198291e-05 0.0000000000000000e+00  -6.4259367838269835e-03 -5.3081238032187293e-04 0.0000000000000000e+00  -6.1941369592365498e-03 -1.0752158373744563e-03 0.0000000000000000e+00  -5.8039931461038186e-03 -1.5987517492138442e-03 0.0000000000000000e+00  -5.2620675160527861e-03 -2.0885139728860423e-03 0.0000000000000000e+00  -4.5787888321832219e-03 -2.5308361372489959e-03 0.0000000000000000e+00  -3.7689497823391403e-03 -2.9116263278137515e-03 0.0000000000000000e+00  -2.8519899248397604e-03 -3.2182810957190108e-03 0.0000000000000000e+00  -1.8540270644730435e-03 -3.4480340020207455e-03 0.0000000000000000e+00  -7.9969563389755088e-04 -3.4744500776431458e-03 0.0000000000000000e+00  0.0000000000000000e+00 0.0000000000000000e+00 0.0000000000000000e+00  0.0000000000000000e+00 0.0000000000000000e+00 0.0000000000000000e+00  -8.8000817454000067e-04 4.5547415225667600e-03 0.0000000000000000e+00  -2.0135088930618495e-03 4.4480766392367525e-03 0.0000000000000000e+00  -3.0937918217244158e-03 4.1632407174967308e-03 0.0000000000000000e+00  -4.0874941508128705e-03 3.7783338648271002e-03 0.0000000000000000e+00  -4.9686649662992206e-03 3.2989806851589612e-03 0.0000000000000000e+00  -5.7171213106585357e-03 2.7407867638292592e-03 0.0000000000000000e+00  -6.3173410184829493e-03 2.1199804962526766e-03 0.0000000000000000e+00  -6.7580480034402065e-03 1.4522685496470009e-03 0.0000000000000000e+00  -7.0315196396108755e-03 7.5254303634001666e-04 0.0000000000000000e+00  -7.1328991008409188e-03 3.4954810855559513e-05 0.0000000000000000e+00  -7.0597153784684365e-03 -6.8666826214721830e-04 0.0000000000000000e+00  -6.8117445435467621e-03 -1.3981937577544376e-03 0.0000000000000000e+00  -6.3912751256737423e-03 -2.0845377272814035e-03 0.0000000000000000e+00  -5.8037602727087807e-03 -2.7291973156497737e-03 0.0000000000000000e+00  -5.0587456730401183e-03 -3.3141309040188947e-03 0.0000000000000000e+00  -4.1708405971835017e-03 -3.8201543471202003e-03 0.0000000000000000e+00  -3.1604526787895521e-03 -4.2294482701654545e-03 0.0000000000000000e+00  -2.0564834941314042e-03 -4.5366729806307704e-03 0.0000000000000000e+00  -8.8635086713747711e-04 -4.5804754316146438e-03 0.0000000000000000e+00  0.0000000000000000e+00 0.0000000000000000e+00 0.0000000000000000e+00  0.0000000000000000e+00 0.0000000000000000e+00 0.0000000000000000e+00  -9.9089677552959650e-04 5.7640227725106628e-03 0.0000000000000000e+00  -2.2632809683870198e-03 5.6314365067492642e-03 0.0000000000000000e+00  -3.4730211378146939e-03 5.2647174192523381e-03 0.0000000000000000e+00  -4.5812268511513888e-03 4.7712128103310908e-03 0.0000000000000000e+00  -5.5592892575714687e-03 4.1596886746357396e-03 0.0000000000000000e+00  -6.3860701028814488e-03 3.4512662734920078e-03 0.0000000000000000e+00  -7.0463982681818445e-03 2.6672827757204393e-03 0.0000000000000000e+00  -7.5301041779339281e-03 1.8275982857702570e-03 0.0000000000000000e+00  -7.8307218939889407e-03 9.5024061514602937e-04 0.0000000000000000e+00  -7.9442682985664311e-03 5.1663256655106656e-05 0.0000000000000000e+00  -7.8683912517065469e-03 -8.5245885340672826e-04 0.0000000000000000e+00  -7.6020747868700096e-03 -1.7461045385658777e-03 0.0000000000000000e+00  -7.1459974554623192e-03 -2.6117266105590369e-03 0.0000000000000000e+00  -6.5035417554909561e-03 -3.4293112426968882e-03 0.0000000000000000e+00  -5.6823270865103285e-03 -4.1759532386925549e-03 0.0000000000000000e+00  -4.6959543941591025e-03 -4.8262399441614369e-03 0.0000000000000000e+00  -3.5655324164735915e-03 -5.3554830405014029e-03 0.0000000000000000e+00  -2.3234263213310095e-03 -5.7541922648832325e-03 0.0000000000000000e+00  -1.0010667193115297e-03 -5.8196617915210816e-03 0.0000000000000000e+00  0.0000000000000000e+00 0.0000000000000000e+00 0.0000000000000000e+00  0.0000000000000000e+00 0.0000000000000000e+00 0.0000000000000000e+00  -1.1328285279321396e-03 7.1345488577258748e-03 0.0000000000000000e+00  -2.5824373435688179e-03 6.9686694307522397e-03 0.0000000000000000e+00  -3.9555902001577282e-03 6.5040797527901786e-03 0.0000000000000000e+00  -5.2060964015459340e-03 5.8822477998003043e-03 0.0000000000000000e+00  -6.3022039929101648e-03 5.1170488135347811e-03 0.0000000000000000e+00  -7.2222960900034583e-03 4.2370476261672308e-03 0.0000000000000000e+00  -7.9526637576829429e-03 3.2699721846382521e-03 0.0000000000000000e+00  -8.4856137250574979e-03 2.2403265012365323e-03 0.0000000000000000e+00  -8.8172039394020484e-03 1.1690189601618003e-03 0.0000000000000000e+00  -8.9452083151693347e-03 7.3972829521497406e-05 0.0000000000000000e+00  -8.8677049072095893e-03 -1.0284622064656499e-03 0.0000000000000000e+00  -8.5825278625004872e-03 -2.1216078509305072e-03 0.0000000000000000e+00  -8.0877179403200800e-03 -3.1864332503978819e-03 0.0000000000000000e+00  -7.3830100244436188e-03 -4.1998116767181645e-03 0.0000000000000000e+00  -6.4722518063840707e-03 -5.1334853535959755e-03 0.0000000000000000e+00  -5.3663791207561448e-03 -5.9542477849042763e-03 0.0000000000000000e+00  -4.0863141683290666e-03 -6.6280162549271961e-03 0.0000000000000000e+00  -2.6684528277421014e-03 -7.1384902504687481e-03 0.0000000000000000e+00  -1.1498738501622523e-03 -7.2326715448461781e-03 0.0000000000000000e+00  0.0000000000000000e+00 0.0000000000000000e+00 0.0000000000000000e+00  0.0000000000000000e+00 0.0000000000000000e+00 0.0000000000000000e+00  -1.3131610665441051e-03 8.7102438388971543e-03 0.0000000000000000e+00  -2.9865901696077249e-03 8.5000293376878214e-03 0.0000000000000000e+00  -4.5631094067257148e-03 7.9146307966033343e-03 0.0000000000000000e+00  -5.9868199618463300e-03 7.1367789999217564e-03 0.0000000000000000e+00  -7.2225116619036101e-03 6.1886966489894113e-03 0.0000000000000000e+00  -8.2492816919058406e-03 5.1093323390773151e-03 0.0000000000000000e+00  -9.0569812291673244e-03 3.9346093885277928e-03 0.0000000000000000e+00  -9.6427607372275813e-03 2.6941939384907375e-03 0.0000000000000000e+00  -1.0007299952407494e-02 1.4112547663575486e-03 0.0000000000000000e+00  -1.0151580739146071e-02 1.0371883546077455e-04 0.0000000000000000e+00  -1.0074681150915718e-02 -1.2133549793445209e-03 0.0000000000000000e+00  -9.7728419777454913e-03 -2.5247245111590872e-03 0.0000000000000000e+00  -9.2399654480725835e-03 -3.8116795745129521e-03 0.0000000000000000e+00  -8.4696701947664221e-03 -5.0490082905818761e-03 0.0000000000000000e+00  -7.4589193800869060e-03 -6.2028163261232758e-03 0.0000000000000000e+00  -6.2128864462748659e-03 -7.2300633682961420e-03 0.0000000000000000e+00  -4.7502134915053309e-03 -8.0834617230656873e-03 0.0000000000000000e+00  -3.1115206953084597e-03 -8.7354281766007999e-03 0.0000000000000000e+00  -1.3417078010176556e-03 -8.8698813658282666e-03 0.0000000000000000e+00  0.0000000000000000e+00 0.0000000000000000e+00 0.0000000000000000e+00  0.0000000000000000e+00 0.0000000000000000e+00 0.0000000000000000e+00  -1.5428317232029374e-03 1.0546127855780863e-02 0.0000000000000000e+00  -3.4986204344206718e-03 1.0274569047690923e-02 0.0000000000000000e+00  -5.3265610659953486e-03 9.5348397746005883e-03 0.0000000000000000e+00  -6.9577270964485032e-03 8.5615507884983493e-03 0.0000000000000000e+00  -8.3536276331846113e-03 7.3906305233729600e-03 0.0000000000000000e+00  -9.4966022352054313e-03 6.0758633470467758e-03 0.0000000000000000e+00  -1.0383818143486646e-02 4.6638063776764990e-03 0.0000000000000000e+00  -1.1021184735640517e-02 3.1896652392509237e-03 0.0000000000000000e+00  -1.1417305329141139e-02 1.6775750827549526e-03 0.0000000000000000e+00  -1.1578613545157221e-02 1.4301536153164487e-04 0.0000000000000000e+00  -1.1506144073582344e-02 -1.4033725155857737e-03 0.0000000000000000e+00  -1.1194065514585447e-02 -2.9511479601273568e-03 0.0000000000000000e+00  -1.0630095398085390e-02 -4.4850395036643434e-03 0.0000000000000000e+00  -9.7980724153730516e-03 -5.9799586481157690e-03 0.0000000000000000e+00  -8.6830380165880405e-03 -7.3967753914714451e-03 0.0000000000000000e+00  -7.2788387024986861e-03 -8.6802315509644790e-03 0.0000000000000000e+00  -5.5973790333826781e-03 -9.7642029540681193e-03 0.0000000000000000e+00  -3.6826205491408376e-03 -1.0602271760664693e-02 0.0000000000000000e+00  -1.5901060815666154e-03 -1.0796232776946585e-02 0.0000000000000000e+00  0.0000000000000000e+00 0.0000000000000000e+00 0.0000000000000000e+00  0.0000000000000000e+00 0.0000000000000000e+00 0.0000000000000000e+00  -1.8385512774399624e-03 1.2713789836982984e-02 0.0000000000000000e+00  -4.1528966386890978e-03 1.2353868966610945e-02 0.0000000000000000e+00  -6.2912792223490076e-03 1.1409558416909153e-02 0.0000000000000000e+00  -8.1671928121996376e-03 1.0183608257318542e-02 0.0000000000000000e+00  -9.7402848413673752e-03 8.7345556174875504e-03 0.0000000000000000e+00  -1.1001199072544994e-02 7.1376584869679398e-03 0.0000000000000000e+00  -1.1960954899918032e-02 5.4531475190725005e-03 0.0000000000000000e+00  -1.2640460697998316e-02 3.7215657428337923e-03 0.0000000000000000e+00  -1.3061170896986971e-02 1.9655037471731384e-03 0.0000000000000000e+00  -1.3238210524887727e-02 1.9407338434785867e-04 0.0000000000000000e+00  -1.3176049412035167e-02 -1.5912093907100707e-03 0.0000000000000000e+00  -1.2866409211907650e-02 -3.3898045023429101e-03 0.0000000000000000e+00  -1.2288316425265386e-02 -5.1949598006381372e-03 0.0000000000000000e+00  -1.1410779067511074e-02 -6.9860103764426097e-03 0.0000000000000000e+00  -1.0199154473505584e-02 -8.7207194364099083e-03 0.0000000000000000e+00  -8.6262554714109773e-03 -1.0329546313515644e-02 0.0000000000000000e+00  -6.6881134011077988e-03 -1.1719586336806290e-02 0.0000000000000000e+00  -4.4282983331229700e-03 -1.2812840660043583e-02 0.0000000000000000e+00  -1.9163282268707890e-03 -1.3099198935821335e-02 0.0000000000000000e+00  0.0000000000000000e+00 0.0000000000000000e+00 0.0000000000000000e+00  0.0000000000000000e+00 0.0000000000000000e+00 0.0000000000000000e+00  -2.2267633203736357e-03 1.5310258842473702e-02 0.0000000000000000e+00  -5.0026523029855973e-03 1.4817652439530283e-02 0.0000000000000000e+00  -7.5252820122640026e-03 1.3591128565541694e-02 0.0000000000000000e+00  -9.6845630520919074e-03 1.2027561852900381e-02 0.0000000000000000e+00  -1.1442729767925857e-02 1.0222931111215996e-02 0.0000000000000000e+00  -1.2808664773756601e-02 8.2835381740478577e-03 0.0000000000000000e+00  -1.3818403986421098e-02 6.2864024127198600e-03 0.0000000000000000e+00  -1.4517410287763112e-02 4.2755841871814654e-03 0.0000000000000000e+00  -1.4946851516897659e-02 2.2674586686531550e-03 0.0000000000000000e+00  -1.5134793581346969e-02 2.5877019909073789e-04 0.0000000000000000e+00  -1.5091200706895980e-02 -1.7647318243689282e-03 0.0000000000000000e+00  -1.4805361659036814e-02 -3.8195961714743774e-03 0.0000000000000000e+00  -1.4245112863017802e-02 -5.9153333449646602e-03 0.0000000000000000e+00  -1.3358486919638004e-02 -8.0434814839471097e-03 0.0000000000000000e+00  -1.2080016387005869e-02 -1.0164642019635583e-02 0.0000000000000000e+00  -1.0345164516044073e-02 -1.2195299025250080e-02 0.0000000000000000e+00  -8.1157122564608376e-03 -1.4005812342445474e-02 0.0000000000000000e+00  -5.4237383173153597e-03 -1.5465374424336029e-02 0.0000000000000000e+00  -2.3553911100358603e-03 -1.5902682289726078e-02 0.0000000000000000e+00  0.0000000000000000e+00 0.0000000000000000e+00 0.0000000000000000e+00  0.0000000000000000e+00 0.0000000000000000e+00 0.0000000000000000e+00  -2.7511096721394980e-03 1.8473083963603244e-02 0.0000000000000000e+00  -6.1333001861771956e-03 1.7772358510382735e-02 0.0000000000000000e+00  -9.1335067729322247e-03 1.6139596726070432e-02 0.0000000000000000e+00  -1.1610942796535096e-02 1.4109426649861447e-02 0.0000000000000000e+00  -1.3542238849948048e-02 1.1839907480812416e-02 0.0000000000000000e+00  -1.4973929070237630e-02 9.4812240548240116e-03 0.0000000000000000e+00  -1.5985775260706485e-02 7.1284689717175777e-03 0.0000000000000000e+00  -1.6661624854697951e-02 4.8234918809875625e-03 0.0000000000000000e+00  -1.7070915398892883e-02 2.5680601144689869e-03 0.0000000000000000e+00  -1.7259377473707430e-02 3.3783712414757331e-04 0.0000000000000000e+00  -1.7244909067611194e-02 -1.9057788818882418e-03 0.0000000000000000e+00  -1.7015232882231432e-02 -4.2055860497797609e-03 0.0000000000000000e+00  -1.6525674368336688e-02 -6.5981605939833430e-03 0.0000000000000000e+00  -1.5697640720404096e-02 -9.1002257869158033e-03 0.0000000000000000e+00  -1.4420788572622058e-02 -1.1688726101226459e-02 0.0000000000000000e+00  -1.2567433767648923e-02 -1.4274245690766168e-02 0.0000000000000000e+00  -1.0029527487610358e-02 -1.6682316503074075e-02 0.0000000000000000e+00  -6.7966969701210482e-03 -1.8695138083507281e-02 0.0000000000000000e+00  -2.9678625390287816e-03 -1.9391972695671517e-02 0.0000000000000000e+00  0.0000000000000000e+00 0.0000000000000000e+00 0.0000000000000000e+00  0.0000000000000000e+00 0.0000000000000000e+00 0.0000000000000000e+00  -3.4867353338875308e-03 2.2407620157502476e-02 0.0000000000000000e+00  -7.6875329509534076e-03 2.1364025149025006e-02 0.0000000000000000e+00  -1.1282650211195825e-02 1.9119809598778442e-02 0.0000000000000000e+00  -1.4095682024449998e-02 1.6423158832239486e-02 0.0000000000000000e+00  -1.6147328346166258e-02 1.3534877014824493e-02 0.0000000000000000e+00  -1.755966922527264