<?xml version="1.0"?>
<VTKFile type="UnstructuredGrid"  version="0.1"  >
<UnstructuredGrid>
<Piece  NumberOfPoints="441" NumberOfCells="800">
<Points>
<DataArray  type="Float64"  NumberOfComponents="3"  format="ascii">0 0 0  0.05 0 0  0.1 0 0  0.15 0 0  0.2 0 0  0.25 0 0  0.3 0 0  0.35 0 0  0.4 0 0  0.45 0 0  0.5 0 0  0.55 0 0  0.6 0 0  0.65 0 0  0.7 0 0  0.75 0 0  0.8 0 0  0.85 0 0  0.9 0 0  0.95 0 0  1 0 0  0 0.05 0  0.05 0.05 0  0.1 0.05 0  0.15 0.05 0  0.2 0.05 0  0.25 0.05 0  0.3 0.05 0  0.35 0.05 0  0.4 0.05 0  0.45 0.05 0  0.5 0.05 0  0.55 0.05 0  0.6 0.05 0  0.65 0.05 0  0.7 0.05 0  0.75 0.05 0  0.8 0.05 0  0.85 0.05 0  0.9 0.05 0  0.95 0.05 0  1 0.05 0  0 0.1 0  0.05 0.1 0  0.1 0.1 0  0.15 0.1 0  0.2 0.1 0  0.25 0.1 0  0.3 0.1 0  0.35 0.1 0  0.4 0.1 0  0.45 0.1 0  0.5 0.1 0  0.55 0.1 0  0.6 0.1 0  0.65 0.1 0  0.7 0.1 0  0.75 0.1 0  0.8 0.1 0  0.85 0.1 0  0.9 0.1 0  0.95 0.1 0  1 0.1 0  0 0.15 0  0.05 0.15 0  0.1 0.15 0  0.15 0.15 0  0.2 0.15 0  0.25 0.15 0  0.3 0.15 0  0.35 0.15 0  0.4 0.15 0  0.45 0.15 0  0.5 0.15 0  0.55 0.15 0  0.6 0.15 0  0.65 0.15 0  0.7 0.15 0  0.75 0.15 0  0.8 0.15 0  0.85 0.15 0  0.9 0.15 0  0.95 0.15 0  1 0.15 0  0 0.2 0  0.05 0.2 0  0.1 0.2 0  0.15 0.2 0  0.2 0.2 0  0.25 0.2 0  0.3 0.2 0  0.35 0.2 0  0.4 0.2 0  0.45 0.2 0  0.5 0.2 0  0.55 0.2 0  0.6 0.2 0  0.65 0.2 0  0.7 0.2 0  0.75 0.2 0  0.8 0.2 0  0.85 0.2 0  0.9 0.2 0  0.95 0.2 0  1 0.2 0  0 0.25 0  0.05 0.25 0  0.1 0.25 0  0.15 0.25 0  0.2 0.25 0  0.25 0.25 0  0.3 0.25 0  0.35 0.25 0  0.4 0.25 0  0.45 0.25 0  0.5 0.25 0  0.55 0.25 0  0.6 0.25 0  0.65 0.25 0  0.7 0.25 0  0.75 0.25 0  0.8 0.25 0  0.85 0.25 0  0.9 0.25 0  0.95 0.25 0  1 0.25 0  0 0.3 0  0.05 0.3 0  0.1 0.3 0  0.15 0.3 0  0.2 0.3 0  0.25 0.3 0  0.3 0.3 0  0.35 0.3 0  0.4 0.3 0  0.45 0.3 0  0.5 0.3 0  0.55 0.3 0  0.6 0.3 0  0.65 0.3 0  0.7 0.3 0  0.75 0.3 0  0.8 0.3 0  0.85 0.3 0  0.9 0.3 0  0.95 0.3 0  1 0.3 0  0 0.35 0  0.05 0.35 0  0.1 0.35 0  0.15 0.35 0  0.2 0.35 0  0.25 0.35 0  0.3 0.35 0  0.35 0.35 0  0.4 0.35 0  0.45 0.35 0  0.5 0.35 0  0.55 0.35 0  0.6 0.35 0  0.65 0.35 0  0.7 0.35 0  0.75 0.35 0  0.8 0.35 0  0.85 0.35 0  0.9 0.35 0  0.95 0.35 0  1 0.35 0  0 0.4 0  0.05 0.4 0  0.1 0.4 0  0.15 0.4 0  0.2 0.4 0  0.25 0.4 0  0.3 0.4 0  0.35 0.4 0  0.4 0.4 0  0.45 0.4 0  0.5 0.4 0  0.55 0.4 0  0.6 0.4 0  0.65 0.4 0  0.7 0.4 0  0.75 0.4 0  0.8 0.4 0  0.85 0.4 0  0.9 0.4 0  0.95 0.4 0  1 0.4 0  0 0.45 0  0.05 0.45 0  0.1 0.45 0  0.15 0.45 0  0.2 0.45 0  0.25 0.45 0  0.3 0.45 0  0.35 0.45 0  0.4 0.45 0  0.45 0.45 0  0.5 0.45 0  0.55 0.45 0  0.6 0.45 0  0.65 0.45 0  0.7 0.45 0  0.75 0.45 0  0.8 0.45 0  0.85 0.45 0  0.9 0.45 0  0.95 0.45 0  1 0.45 0  0 0.5 0  0.05 0.5 0  0.1 0.5 0  0.15 0.5 0  0.2 0.5 0  0.25 0.5 0  0.3 0.5 0  0.35 0.5 0  0.4 0.5 0  0.45 0.5 0  0.5 0.5 0  0.55 0.5 0  0.6 0.5 0  0.65 0.5 0  0.7 0.5 0  0.75 0.5 0  0.8 0.5 0  0.85 0.5 0  0.9 0.5 0  0.95 0.5 0  1 0.5 0  0 0.55 0  0.05 0.55 0  0.1 0.55 0  0.15 0.55 0  0.2 0.55 0  0.25 0.55 0  0.3 0.55 0  0.35 0.55 0  0.4 0.55 0  0.45 0.55 0  0.5 0.55 0  0.55 0.55 0  0.6 0.55 0  0.65 0.55 0  0.7 0.55 0  0.75 0.55 0  0.8 0.55 0  0.85 0.55 0  0.9 0.55 0  0.95 0.55 0  1 0.55 0  0 0.6 0  0.05 0.6 0  0.1 0.6 0  0.15 0.6 0  0.2 0.6 0  0.25 0.6 0  0.3 0.6 0  0.35 0.6 0  0.4 0.6 0  0.45 0.6 0  0.5 0.6 0  0.55 0.6 0  0.6 0.6 0  0.65 0.6 0  0.7 0.6 0  0.75 0.6 0  0.8 0.6 0  0.85 0.6 0  0.9 0.6 0  0.95 0.6 0  1 0.6 0  0 0.65 0  0.05 0.65 0  0.1 0.65 0  0.15 0.65 0  0.2 0.65 0  0.25 0.65 0  0.3 0.65 0  0.35 0.65 0  0.4 0.65 0  0.45 0.65 0  0.5 0.65 0  0.55 0.65 0  0.6 0.65 0  0.65 0.65 0  0.7 0.65 0  0.75 0.65 0  0.8 0.65 0  0.85 0.65 0  0.9 0.65 0  0.95 0.65 0  1 0.65 0  0 0.7 0  0.05 0.7 0  0.1 0.7 0  0.15 0.7 0  0.2 0.7 0  0.25 0.7 0  0.3 0.7 0  0.35 0.7 0  0.4 0.7 0  0.45 0.7 0  0.5 0.7 0  0.55 0.7 0  0.6 0.7 0  0.65 0.7 0  0.7 0.7 0  0.75 0.7 0  0.8 0.7 0  0.85 0.7 0  0.9 0.7 0  0.95 0.7 0  1 0.7 0  0 0.75 0  0.05 0.75 0  0.1 0.75 0  0.15 0.75 0  0.2 0.75 0  0.25 0.75 0  0.3 0.75 0  0.35 0.75 0  0.4 0.75 0  0.45 0.75 0  0.5 0.75 0  0.55 0.75 0  0.6 0.75 0  0.65 0.75 0  0.7 0.75 0  0.75 0.75 0  0.8 0.75 0  0.85 0.75 0  0.9 0.75 0  0.95 0.75 0  1 0.75 0  0 0.8 0  0.05 0.8 0  0.1 0.8 0  0.15 0.8 0  0.2 0.8 0  0.25 0.8 0  0.3 0.8 0  0.35 0.8 0  0.4 0.8 0  0.45 0.8 0  0.5 0.8 0  0.55 0.8 0  0.6 0.8 0  0.65 0.8 0  0.7 0.8 0  0.75 0.8 0  0.8 0.8 0  0.85 0.8 0  0.9 0.8 0  0.95 0.8 0  1 0.8 0  0 0.85 0  0.05 0.85 0  0.1 0.85 0  0.15 0.85 0  0.2 0.85 0  0.25 0.85 0  0.3 0.85 0  0.35 0.85 0  0.4 0.85 0  0.45 0.85 0  0.5 0.85 0  0.55 0.85 0  0.6 0.85 0  0.65 0.85 0  0.7 0.85 0  0.75 0.85 0  0.8 0.85 0  0.85 0.85 0  0.9 0.85 0  0.95 0.85 0  1 0.85 0  0 0.9 0  0.05 0.9 0  0.1 0.9 0  0.15 0.9 0  0.2 0.9 0  0.25 0.9 0  0.3 0.9 0  0.35 0.9 0  0.4 0.9 0  0.45 0.9 0  0.5 0.9 0  0.55 0.9 0  0.6 0.9 0  0.65 0.9 0  0.7 0.9 0  0.75 0.9 0  0.8 0.9 0  0.85 0.9 0  0.9 0.9 0  0.95 0.9 0  1 0.9 0  0 0.95 0  0.05 0.95 0  0.1 0.95 0  0.15 0.95 0  0.2 0.95 0  0.25 0.95 0  0.3 0.95 0  0.35 0.95 0  0.4 0.95 0  0.45 0.95 0  0.5 0.95 0  0.55 0.95 0  0.6 0.95 0  0.65 0.95 0  0.7 0.95 0  0.75 0.95 0  0.8 0.95 0  0.85 0.95 0  0.9 0.95 0  0.95 0.95 0  1 0.95 0  0 1 0  0.05 1 0  0.1 1 0  0.15 1 0  0.2 1 0  0.25 1 0  0.3 1 0  0.35 1 0  0.4 1 0  0.45 1 0  0.5 1 0  0.55 1 0  0.6 1 0  0.65 1 0  0.7 1 0  0.75 1 0  0.8 1 0  0.85 1 0  0.9 1 0  0.95 1 0  1 1 0  </DataArray>
</Points>
<Cells>
[...]
<PointData  Vectors="f_137"> 
<DataArray  type="Float64"  Name="f_137"  NumberOfComponents="3" format="ascii">0.0000000000000000e+00 0.0000000000000000e+00 0.0000000000000000e+00  0.0000000000000000e+00 0.0000000000000000e+00 0.0000000000000000e+00  0.0000000000000000e+00 0.0000000000000000e+00 0.0000000000000000e+00  0.0000000000000000e+00 0.0000000000000000e+00 0.0000000000000000e+00  0.0000000000000000e+00 0.0000000000000000e+00 0.0000000000000000e+00  0.0000000000000000e+00 0.0000000000000000e+00 0.0000000000000000e+00  0.0000000000000000e+00 0.0000000000000000e+00 0.0000000000000000e+00  0.0000000000000000e+00 0.0000000000000000e+00 0.0000000000000000e+00  0.0000000000000000e+00 0.0000000000000000e+00 0.0000000000000000e+00  0.0000000000000000e+00 0.0000000000000000e+00 0.0000000000000000e+00  0.0000000000000000e+00 0.0000000000000000e+00 0.0000000000000000e+00  0.0000000000000000e+00 0.0000000000000000e+00 0.0000000000000000e+00  0.0000000000000000e+00 0.0000000000000000e+00 0.0000000000000000e+00  0.0000000000000000e+00 0.0000000000000000e+00 0.0000000000000000e+00  0.0000000000000000e+00 0.0000000000000000e+00 0.0000000000000000e+00  0.0000000000000000e+00 0.0000000000000000e+00 0.0000000000000000e+00  0.0000000000000000e+00 0.0000000000000000e+00 0.0000000000000000e+00  0.0000000000000000e+00 0.0000000000000000e+00 0.0000000000000000e+00  0.0000000000000000e+00 0.0000000000000000e+00 0.0000000000000000e+00  0.0000000000000000e+00 0.0000000000000000e+00 0.0000000000000000e+00  0.0000000000000000e+00 0.0000000000000000e+00 0.0000000000000000e+00  0.0000000000000000e+00 0.0000000000000000e+00 0.0000000000000000e+00  -6.9921441851581714e-04 6.9054009155580017e-04 0.0000000000000000e+00  -1.6024516508915212e-03 6.5610916759139041e-04 0.0000000000000000e+00  -2.4596497404479620e-03 6.1530639222848172e-04 0.0000000000000000e+00  -3.2522338654585232e-03 5.5874398069737715e-04 0.0000000000000000e+00  -3.9599153119898572e-03 4.8795890948075008e-04 0.0000000000000000e+00  -4.5647426719922207e-03 4.0501889559225334e-04 0.0000000000000000e+00  -5.0518613418188653e-03 3.1214067497639788e-04 0.0000000000000000e+00  -5.4094880169342106e-03 2.1163535498137665e-04 0.0000000000000000e+00  -5.6289916205290941e-03 1.0586588744159408e-04 0.0000000000000000e+00  -5.7049301169254411e-03 -2.7752604167747729e-06 0.0000000000000000e+00  -5.6350729024892392e-03 -1.1185820176789619e-04 0.0000000000000000e+00  -5.4204465758029936e-03 -2.1889303687804132e-04 0.0000000000000000e+00  -5.0654143409134449e-03 -3.2131164340090082e-04 0.0000000000000000e+00  -4.5777717047275771e-03 -4.1646918912038026e-04 0.0000000000000000e+00  -3.9688121848107114e-03 -5.0166509888283008e-04 0.0000000000000000e+00  -3.2533201189300486e-03 -5.7419348255111774e-04 0.0000000000000000e+00  -2.4496323060074067e-03 -6.3201936498859333e-04 0.0000000000000000e+00  -1.5802615899327404e-03 -6.7636075397041245e-04 0.0000000000000000e+00  -6.6198688333609496e-04 -6.5932693916619242e-04 0.0000000000000000e+00  0.0000000000000000e+00 0.0000000000000000e+00 0.0000000000000000e+00  0.0000000000000000e+00 0.0000000000000000e+00 0.0000000000000000e+00  -7.1182555492175137e-04 1.6208351868942268e-03 0.0000000000000000e+00  -1.6527472402598062e-03 1.5647342028043574e-03 0.0000000000000000e+00  -2.5529425326654182e-03 1.4696378747215931e-03 0.0000000000000000e+00  -3.3860675625471516e-03 1.3369023164808544e-03 0.0000000000000000e+00  -4.1302778390545480e-03 1.1699957814275126e-03 0.0000000000000000e+00  -4.7670631419738027e-03 9.7407794385552082e-04 0.0000000000000000e+00  -5.2809694423362899e-03 7.5443477418760888e-04 0.0000000000000000e+00  -5.6597713800766213e-03 5.1656975382878198e-04 0.0000000000000000e+00  -5.8945013972923161e-03 2.6606685530784324e-04 0.0000000000000000e+00  -5.9794276679088522e-03 8.5427145222209184e-06 0.0000000000000000e+00  -5.9120420375784657e-03 -2.5032393127078103e-04 0.0000000000000000e+00  -5.6931010830709779e-03 -5.0472247735141175e-04 0.0000000000000000e+00  -5.3267351145131064e-03 -7.4864658855281114e-04 0.0000000000000000e+00  -4.8206078004567471e-03 -9.7587975718516930e-04 0.0000000000000000e+00  -4.1860797057749720e-03 -1.1800536426494850e-03 0.0000000000000000e+00  -3.4382911895974311e-03 -1.3547788892518649e-03 0.0000000000000000e+00  -2.5959822935263327e-03 -1.4943679229258604e-03 0.0000000000000000e+00  -1.6831100117653745e-03 -1.5977934191522493e-03 0.0000000000000000e+00  -7.2352273493595605e-04 -1.6034905851389056e-03 0.0000000000000000e+00  0.0000000000000000e+00 0.0000000000000000e+00 0.0000000000000000e+00  0.0000000000000000e+00 0.0000000000000000e+00 0.0000000000000000e+00  -7.5482285295719027e-04 2.5900531959942284e-03 0.0000000000000000e+00  -1.7501142675606619e-03 2.5161669984197772e-03 0.0000000000000000e+00  -2.7002791616988569e-03 2.3611342630857055e-03 0.0000000000000000e+00  -3.5792360352507381e-03 2.1474610031975770e-03 0.0000000000000000e+00  -4.3632848122254746e-03 1.8790511276919892e-03 0.0000000000000000e+00  -5.0333175188186398e-03 1.5643227176844437e-03 0.0000000000000000e+00  -5.5735340727902268e-03 1.2119494055618165e-03 0.0000000000000000e+00  -5.9715975995379908e-03 8.3077294251267524e-04 0.0000000000000000e+00  -6.2185415256233419e-03 4.2964366513029341e-04 0.0000000000000000e+00  -6.3086230683550076e-03 1.7368992238183043e-05 0.0000000000000000e+00  -6.2392265002073084e-03 -3.9719909060514225e-04 0.0000000000000000e+00  -6.0108772088793899e-03 -8.0499866385998350e-04 0.0000000000000000e+00  -5.6273913828468643e-03 -1.1965975050889032e-03 0.0000000000000000e+00  -5.0961421978154720e-03 -1.5621198609885945e-03 0.0000000000000000e+00  -4.4283771713220415e-03 -1.8913121339366257e-03 0.0000000000000000e+00  -3.6394586112463529e-03 -2.1737414857234557e-03 0.0000000000000000e+00  -2.7488436666994903e-03 -2.3998158887259028e-03 0.0000000000000000e+00  -1.7822179262510071e-03 -2.5670006600523963e-03 0.0000000000000000e+00  -7.6297789691919275e-04 -2.5889567829172726e-03 0.0000000000000000e+00  0.0000000000000000e+00 0.0000000000000000e+00 0.0000000000000000e+00  0.0000000000000000e+00 0.0000000000000000e+00 0.0000000000000000e+00  -8.1869449601066865e-04 3.6288067261872484e-03 0.0000000000000000e+00  -1.8955260484875064e-03 3.5350051515886586e-03 0.0000000000000000e+00  -2.9229083754202618e-03 3.3155292602213234e-03 0.0000000000000000e+00  -3.8713139487300497e-03 3.0138507018421068e-03 0.0000000000000000e+00  -4.7156360172539852e-03 2.6358536406756211e-03 0.0000000000000000e+00  -5.4357385691750897e-03 2.1935941844782683e-03 0.0000000000000000e+00  -6.0154304308560535e-03 1.6995243887745015e-03 0.0000000000000000e+00  -6.4423671093988954e-03 1.1660594582937607e-03 0.0000000000000000e+00  -6.7077292257038696e-03 6.0536814620563561e-04 0.0000000000000000e+00  -6.8058630148199227e-03 2.9355048348221046e-05 0.0000000000000000e+00  -6.7340332225010926e-03 -5.5012969515351765e-04 0.0000000000000000e+00  -6.4923832157533085e-03 -1.1209446036886080e-03 0.0000000000000000e+00  -6.0841445279921575e-03 -1.6703084203246042e-03 0.0000000000000000e+00  -5.5160759406848543e-03 -2.1845860400273088e-03 0.0000000000000000e+00  -4.7990432048143454e-03 -2.6493089890031987e-03 0.0000000000000000e+00  -3.9485611351645737e-03 -3.0494489491991838e-03 0.0000000000000000e+00  -2.9850443751894000e-03 -3.3708125821312472e-03 0.0000000000000000e+00  -1.9364276460088188e-03 -3.6085091881243462e-03 0.0000000000000000e+00  -8.2784545138264286e-04 -3.6487621578906258e-03 0.0000000000000000e+00  0.0000000000000000e+00 0.0000000000000000e+00 0.0000000000000000e+00  0.0000000000000000e+00 0.0000000000000000e+00 0.0000000000000000e+00  -9.0562299421056698e-04 4.7658020975892583e-03 0.0000000000000000e+00  -2.0935744007698539e-03 4.6481015483227275e-03 0.0000000000000000e+00  -3.2254950079306549e-03 4.3561035459638619e-03 0.0000000000000000e+00  -4.2674977937486288e-03 3.9561994197984786e-03 0.0000000000000000e+00  -5.1922616632897088e-03 3.4568325739698230e-03 0.0000000000000000e+00  -5.9785610771139050e-03 2.8746237721273744e-03 0.0000000000000000e+00  -6.6099868870566009e-03 2.2264048065350111e-03 0.0000000000000000e+00  -7.0745468206494643e-03 1.5284873747282610e-03 0.0000000000000000e+00  -7.3639489402115323e-03 7.9637817121544767e-04 0.0000000000000000e+00  -7.4728906920381944e-03 4.4850707919375924e-05 0.0000000000000000e+00  -7.3985633455947173e-03 -7.1161612695786489e-04 0.0000000000000000e+00  -7.1405139760627942e-03 -1.4581756507692216e-03 0.0000000000000000e+00  -6.7009345445612038e-03 -2.1789280457853409e-03 0.0000000000000000e+00  -6.0853635846667455e-03 -2.8564264315568224e-03 0.0000000000000000e+00  -5.3036868845966634e-03 -3.4715522801104580e-03 0.0000000000000000e+00  -4.3711884432251630e-03 -4.0038337030257696e-03 0.0000000000000000e+00  -3.3092769882020669e-03 -4.4332998635189082e-03 0.0000000000000000e+00  -2.1489155077816726e-03 -4.7516537910174475e-03 0.0000000000000000e+00  -9.1812708138615500e-04 -4.8135088388028529e-03 0.0000000000000000e+00  0.0000000000000000e+00 0.0000000000000000e+00 0.0000000000000000e+00  0.0000000000000000e+00 0.0000000000000000e+00 0.0000000000000000e+00  -1.0191882000596749e-03 6.0332890523801469e-03 0.0000000000000000e+00  -2.3523132647471699e-03 5.8863246220382890e-03 0.0000000000000000e+00  -3.6195989504048216e-03 5.5103278732725070e-03 0.0000000000000000e+00  -4.7815294486675090e-03 4.9976347880345993e-03 0.0000000000000000e+00  -5.8080118014587094e-03 4.3605578811362223e-03 0.0000000000000000e+00  -6.6767875042187640e-03 3.6215793791485357e-03 0.0000000000000000e+00  -7.3717746348725618e-03 2.8028408316526712e-03 0.0000000000000000e+00  -7.8820950810317980e-03 1.9249717619491719e-03 0.0000000000000000e+00  -8.2007291009494800e-03 1.0067466266340502e-03 0.0000000000000000e+00  -8.3232455309681479e-03 6.5342646428770659e-05 0.0000000000000000e+00  -8.2469126023341447e-03 -8.8283003757986319e-04 0.0000000000000000e+00  -7.9703902634789409e-03 -1.8209438806430689e-03 0.0000000000000000e+00  -7.4941118500717269e-03 -2.7305035755396012e-03 0.0000000000000000e+00  -6.8213607951908136e-03 -3.5903455649698287e-03 0.0000000000000000e+00  -5.9599155174932337e-03 -4.3761826875803973e-03 0.0000000000000000e+00  -4.9239315061412455e-03 -5.0608797623466189e-03 0.0000000000000000e+00  -3.7355087591145700e-03 -5.6168779166804262e-03 0.0000000000000000e+00  -2.4293778889088718e-03 -6.0306884822082431e-03 0.0000000000000000e+00  -1.0377313368474120e-03 -6.1191838225176966e-03 0.0000000000000000e+00  0.0000000000000000e+00 0.0000000000000000e+00 0.0000000000000000e+00  0.0000000000000000e+00 0.0000000000000000e+00 0.0000000000000000e+00  -1.1645169279424562e-03 7.4692049361757256e-03 0.0000000000000000e+00  -2.6828616115320745e-03 7.2851592912675945e-03 0.0000000000000000e+00  -4.1210223085971385e-03 6.8088220685563351e-03 0.0000000000000000e+00  -5.4320424726989076e-03 6.1629866505979007e-03 0.0000000000000000e+00  -6.5825301663963148e-03 5.3659430276199556e-03 0.0000000000000000e+00  -7.5496727824923863e-03 4.4480494326946942e-03 0.0000000000000000e+00  -8.3188542162341839e-03 3.4380920557947393e-03 0.0000000000000000e+00  -8.8817272453690418e-03 2.3615346298189737e-03 0.0000000000000000e+00  -9.2338619650329645e-03 1.2401579283876109e-03 0.0000000000000000e+00  -9.3726216015980190e-03 9.2672855914293105e-05 0.0000000000000000e+00  -9.2956775373589564e-03 -1.0638134682868655e-03 0.0000000000000000e+00  -9.0004227907233315e-03 -2.2117990323263182e-03 0.0000000000000000e+00  -8.4844372651966538e-03 -3.3312417355195749e-03 0.0000000000000000e+00  -7.7470600029157718e-03 -4.3976978383346082e-03 0.0000000000000000e+00  -6.7919728580902233e-03 -5.3812013071235319e-03 0.0000000000000000e+00  -5.6304039849066996e-03 -6.2462787702637695e-03 0.0000000000000000e+00  -4.2841619969459909e-03 -6.9550243344803668e-03 0.0000000000000000e+00  -2.7923644232261974e-03 -7.4857720720945629e-03 0.0000000000000000e+00  -1.1930957170153216e-03 -7.6090556527908604e-03 0.0000000000000000e+00  0.0000000000000000e+00 0.0000000000000000e+00 0.0000000000000000e+00  0.0000000000000000e+00 0.0000000000000000e+00 0.0000000000000000e+00  -1.3490682497600179e-03 9.1193593893018794e-03 0.0000000000000000e+00  -3.1012555943413190e-03 8.8865840341137946e-03 0.0000000000000000e+00  -4.7520527039050745e-03 8.2864468216352159e-03 0.0000000000000000e+00  -6.2445941491687234e-03 7.4789020058204170e-03 0.0000000000000000e+00  -7.5418301682054567e-03 6.4916576503600667e-03 0.0000000000000000e+00  -8.6215987780860013e-03 5.3660196911064044e-03 0.0000000000000000e+00  -9.4729067679896421e-03 4.1393085024395903e-03 0.0000000000000000e+00  -1.0092391187185605e-02 2.8423800546514702e-03 0.0000000000000000e+00  -1.0480401552742817e-02 1.4993915976642546e-03 0.0000000000000000e+00  -1.0637622696748764e-02 1.2906352729069356e-04 0.0000000000000000e+00  -1.0562740548867326e-02 -1.2528647883292706e-03 0.0000000000000000e+00  -1.0251425764878586e-02 -2.6304365388184507e-03 0.0000000000000000e+00  -9.6968213422910735e-03 -3.9839977375949994e-03 0.0000000000000000e+00  -8.8916891183809868e-03 -5.2869502040173277e-03 0.0000000000000000e+00  -7.8322650377857100e-03 -6.5033796020549720e-03 0.0000000000000000e+00  -6.5234882720739372e-03 -7.5873054958288492e-03 0.0000000000000000e+00  -4.9845694153429054e-03 -8.4863222751162190e-03 0.0000000000000000e+00  -3.2592246554575817e-03 -9.1655982546703842e-03 0.0000000000000000e+00  -1.3937213026839910e-03 -9.3368510058295558e-03 0.0000000000000000e+00  0.0000000000000000e+00 0.0000000000000000e+00 0.0000000000000000e+00  0.0000000000000000e+00 0.0000000000000000e+00 0.0000000000000000e+00  -1.5839237063137320e-03 1.1041055445922064e-02 0.0000000000000000e+00  -3.6309882248757776e-03 1.0741713588144236e-02 0.0000000000000000e+00  -5.5446428173738828e-03 9.9834769957971910e-03 0.0000000000000000e+00  -7.2546951743761613e-03 8.9735619631173078e-03 0.0000000000000000e+00  -8.7205644311065134e-03 7.7547481468029219e-03 0.0000000000000000e+00  -9.9233054263453586e-03 6.3839452172742501e-03 0.0000000000000000e+00  -1.0859412919984102e-02 4.9095779107211097e-03 0.0000000000000000e+00  -1.1534571187822671e-02 3.3683322122736508e-03 0.0000000000000000e+00  -1.1957364550234077e-02 1.7854329379353086e-03 0.0000000000000000e+00  -1.2134175524906671e-02 1.7707237741474818e-04 0.0000000000000000e+00  -1.2065748293311574e-02 -1.4456541138199728e-03 0.0000000000000000e+00  -1.1745568564862217e-02 -3.0719010333628179e-03 0.0000000000000000e+00  -1.1160210116957196e-02 -4.6857489397512820e-03 0.0000000000000000e+00  -1.0291972212022639e-02 -6.2608640617209934e-03 0.0000000000000000e+00  -9.1242355471068994e-03 -7.7558939611453125e-03 0.0000000000000000e+00  -7.6496099268898313e-03 -9.1118539161286673e-03 0.0000000000000000e+00  -5.8797984984069584e-03 -1.0255718852475663e-02 0.0000000000000000e+00  -3.8621400309822250e-03 -1.1131102667973453e-02 0.0000000000000000e+00  -1.6540505881146512e-03 -1.1372022520285706e-02 0.0000000000000000e+00  0.0000000000000000e+00 0.0000000000000000e+00 0.0000000000000000e+00  0.0000000000000000e+00 0.0000000000000000e+00 0.0000000000000000e+00  -1.8859991753563611e-03 1.3308751334810557e-02 0.0000000000000000e+00  -4.3073285990883675e-03 1.2914677540109082e-02 0.0000000000000000e+00  -6.5455385689910800e-03 1.1946906238256089e-02 0.0000000000000000e+00  -8.5123979823164830e-03 1.0675589662640848e-02 0.0000000000000000e+00  -1.0165157631239961e-02 9.1679245554900004e-03 0.0000000000000000e+00  -1.1493238329174519e-02 7.5033788350237661e-03 0.0000000000000000e+00  -1.2507353085432944e-02 5.7447215385615811e-03 0.0000000000000000e+00  -1.3228715959298042e-02 3.9343525512042310e-03 0.0000000000000000e+00  -1.3679316161188842e-02 2.0960284670505499e-03 0.0000000000000000e+00  -1.3874684583500297e-02 2.3937005295897836e-04 0.0000000000000000e+00  -1.3819259546912934e-02 -1.6340905206394976e-03 0.0000000000000000e+00  -1.3504043600649489e-02 -3.5240137225070137e-03 0.0000000000000000e+00  -1.2906480622189465e-02 -5.4236657887470705e-03 0.0000000000000000e+00  -1.1993099987809399e-02 -7.3116824624329547e-03 0.0000000000000000e+00  -1.0726120785263004e-02 -9.1437300875398912e-03 0.0000000000000000e+00  -9.0752847800969205e-03 -1.0845766922311021e-02 0.0000000000000000e+00  -7.0347136050485006e-03 -1.2315552180408199e-02 0.0000000000000000e+00  -4.6512303224708297e-03 -1.3461020442006529e-02 0.0000000000000000e+00  -1.9968448720701841e-03 -1.3808414961937085e-02 0.0000000000000000e+00  0.0000000000000000e+00 0.0000000000000000e+00 0.0000000000000000e+00  0.0000000000000000e+00 0.0000000000000000e+00 0.0000000000000000e+00  -2.2820299906440291e-03 1.6023220550721688e-02 0.0000000000000000e+00  -5.1848722241601714e-03 1.5488470895338211e-02 0.0000000000000000e+00  -7.8248643205409835e-03 1.4231682217017542e-02 0.0000000000000000e+00  -1.0089482521693494e-02 1.2611313488866537e-02 0.0000000000000000e+00  -1.1938207554007100e-02 1.0734497109484681e-02 0.0000000000000000e+00  -1.3378949288547359e-02 8.7133194401757159e-03 0.0000000000000000e+00  -1.4448144090308026e-02 6.6283029934465732e-03 0.0000000000000000e+00  -1.5192477447889622e-02 4.5258500704806123e-03 0.0000000000000000e+00  -1.5654567593220408e-02 2.4235282737887177e-03 0.0000000000000000e+00  -1.5863652770502203e-02 3.1821528460894167e-04 0.0000000000000000e+00  -1.5830177359508008e-02 -1.8050373142526521e-03 0.0000000000000000e+00  -1.5542856697795248e-02 -3.9639753233727476e-03 0.0000000000000000e+00  -1.4967565991355080e-02 -6.1693474615386584e-03 0.0000000000000000e+00  -1.4048710092415082e-02 -8.4132427988346022e-03 0.0000000000000000e+00  -1.2715541373502458e-02 -1.0655073152017991e-02 0.0000000000000000e+00  -1.0897205350717119e-02 -1.2806459572131477e-02 0.0000000000000000e+00  -8.5499429245353767e-03 -1.4725276723606179e-02 0.0000000000000000e+00  -5.7077693388328764e-03 -1.6260351536894754e-02 0.0000000000000000e+00  -2.4598074855638947e-03 -1.6779522845186409e-02 0.0000000000000000e+00  0.0000000000000000e+00 0.0000000000000000e+00 0.0000000000000000e+00  0.0000000000000000e+00 0.0000000000000000e+00 0.0000000000000000e+00  -2.8160925429419389e-03 1.9327074897952941e-02 0.0000000000000000e+00  -6.3511547833291588e-03 1.8573918315916479e-02 0.0000000000000000e+00  -9.4907897465115014e-03 1.6901100715373461e-02 0.0000000000000000e+00  -1.2090668942762110e-02 1.4798570121508358e-02 0.0000000000000000e+00  -1.4124313493498077e-02 1.2439106957036872e-02 0.0000000000000000e+00  -1.5637939191786500e-02 9.9810094056806391e-03 0.0000000000000000e+00  -1.6713013385661894e-02 7.5242512906316871e-03 0.0000000000000000e+00  -1.7436123338093162e-02 5.1136103918809706e-03 0.0000000000000000e+00  -1.7879579087440686e-02 2.7519547036086544e-03 0.0000000000000000e+00  -1.8091457778024782e-02 4.1446397816685129e-04 0.0000000000000000e+00  -1.8091000939322550e-02 -1.9391975145016962e-03 0.0000000000000000e+00  -1.7865844759736425e-02 -4.3544761787877280e-03 0.0000000000000000e+00  -1.7369276426228056e-02 -6.8710913093654579e-03 0.0000000000000000e+00  -1.6518034864874596e-02 -9.5087367348709630e-03 0.0000000000000000e+00  -1.5193704727301268e-02 -1.2245518137794549e-02 0.0000000000000000e+00  -1.3257017580981635e-02 -1.4988365136772090e-02 0.0000000000000000e+00  -1.0587008869306941e-02 -1.7547089194697468e-02 0.0000000000000000e+00  -7.1706084366566286e-03 -1.9674158922108324e-02 0.0000000000000000e+00  -3.1089227210175925e-03 -2.0486721051629114e-02 0.0000000000000000e+00  0.0000000000000000e+00 0.0000000000000000e+00 0.0000000000000000e+00  0.0000000000000000e+00 0.0000000000000000e+00 0.0000000000000000e+00  -3.5641015843318031e-03 2.3433003771713000e-02 0.0000000000000000e+00  -7.9522800920577303e-03 2.2323173946974209e-02 0.0000000000000000e+00  -1.1715148347414382e-02 2.0024137302322696e-02 0.0000000000000000e+00  -1.4670808852792174e-02 1.7233134474592356e-02 0.0000000000000000e+00  -1.6836753718116822e-02 1.4230890592267238e-02 0.0000000000000000e+00  -1.833625889086023