<?xml version="1.0"?>
<VTKFile type="UnstructuredGrid"  version="0.1"  >
<UnstructuredGrid>
<Piece  NumberOfPoints="441" NumberOfCells="800">
<Points>
<DataArray  type="Float64"  NumberOfComponents="3"  format="ascii">0 0 0  0.05 0 0  0.1 0 0  0.15 0 0  0.2 0 0  0.25 0 0  0.3 0 0  0.35 0 0  0.4 0 0  0.45 0 0  0.5 0 0  0.55 0 0  0.6 0 0  0.65 0 0  0.7 0 0  0.75 0 0  0.8 0 0  0.85 0 0  0.9 0 0  0.95 0 0  1 0 0  0 0.05 0  0.05 0.05 0  0.1 0.05 0  0.15 0.05 0  0.2 0.05 0  0.25 0.05 0  0.3 0.05 0  0.35 0.05 0  0.4 0.05 0  0.45 0.05 0  0.5 0.05 0  0.55 0.05 0  0.6 0.05 0  0.65 0.05 0  0.7 0.05 0  0.75 0.05 0  0.8 0.05 0  0.85 0.05 0  0.9 0.05 0  0.95 0.05 0  1 0.05 0  0 0.1 0  0.05 0.1 0  0.1 0.1 0  0.15 0.1 0  0.2 0.1 0  0.25 0.1 0  0.3 0.1 0  0.35 0.1 0  0.4 0.1 0  0.45 0.1 0  0.5 0.1 0  0.55 0.1 0  0.6 0.1 0  0.65 0.1 0  0.7 0.1 0  0.75 0.1 0  0.8 0.1 0  0.85 0.1 0  0.9 0.1 0  0.95 0.1 0  1 0.1 0  0 0.15 0  0.05 0.15 0  0.1 0.15 0  0.15 0.15 0  0.2 0.15 0  0.25 0.15 0  0.3 0.15 0  0.35 0.15 0  0.4 0.15 0  0.45 0.15 0  0.5 0.15 0  0.55 0.15 0  0.6 0.15 0  0.65 0.15 0  0.7 0.15 0  0.75 0.15 0  0.8 0.15 0  0.85 0.15 0  0.9 0.15 0  0.95 0.15 0  1 0.15 0  0 0.2 0  0.05 0.2 0  0.1 0.2 0  0.15 0.2 0  0.2 0.2 0  0.25 0.2 0  0.3 0.2 0  0.35 0.2 0  0.4 0.2 0  0.45 0.2 0  0.5 0.2 0  0.55 0.2 0  0.6 0.2 0  0.65 0.2 0  0.7 0.2 0  0.75 0.2 0  0.8 0.2 0  0.85 0.2 0  0.9 0.2 0  0.95 0.2 0  1 0.2 0  0 0.25 0  0.05 0.25 0  0.1 0.25 0  0.15 0.25 0  0.2 0.25 0  0.25 0.25 0  0.3 0.25 0  0.35 0.25 0  0.4 0.25 0  0.45 0.25 0  0.5 0.25 0  0.55 0.25 0  0.6 0.25 0  0.65 0.25 0  0.7 0.25 0  0.75 0.25 0  0.8 0.25 0  0.85 0.25 0  0.9 0.25 0  0.95 0.25 0  1 0.25 0  0 0.3 0  0.05 0.3 0  0.1 0.3 0  0.15 0.3 0  0.2 0.3 0  0.25 0.3 0  0.3 0.3 0  0.35 0.3 0  0.4 0.3 0  0.45 0.3 0  0.5 0.3 0  0.55 0.3 0  0.6 0.3 0  0.65 0.3 0  0.7 0.3 0  0.75 0.3 0  0.8 0.3 0  0.85 0.3 0  0.9 0.3 0  0.95 0.3 0  1 0.3 0  0 0.35 0  0.05 0.35 0  0.1 0.35 0  0.15 0.35 0  0.2 0.35 0  0.25 0.35 0  0.3 0.35 0  0.35 0.35 0  0.4 0.35 0  0.45 0.35 0  0.5 0.35 0  0.55 0.35 0  0.6 0.35 0  0.65 0.35 0  0.7 0.35 0  0.75 0.35 0  0.8 0.35 0  0.85 0.35 0  0.9 0.35 0  0.95 0.35 0  1 0.35 0  0 0.4 0  0.05 0.4 0  0.1 0.4 0  0.15 0.4 0  0.2 0.4 0  0.25 0.4 0  0.3 0.4 0  0.35 0.4 0  0.4 0.4 0  0.45 0.4 0  0.5 0.4 0  0.55 0.4 0  0.6 0.4 0  0.65 0.4 0  0.7 0.4 0  0.75 0.4 0  0.8 0.4 0  0.85 0.4 0  0.9 0.4 0  0.95 0.4 0  1 0.4 0  0 0.45 0  0.05 0.45 0  0.1 0.45 0  0.15 0.45 0  0.2 0.45 0  0.25 0.45 0  0.3 0.45 0  0.35 0.45 0  0.4 0.45 0  0.45 0.45 0  0.5 0.45 0  0.55 0.45 0  0.6 0.45 0  0.65 0.45 0  0.7 0.45 0  0.75 0.45 0  0.8 0.45 0  0.85 0.45 0  0.9 0.45 0  0.95 0.45 0  1 0.45 0  0 0.5 0  0.05 0.5 0  0.1 0.5 0  0.15 0.5 0  0.2 0.5 0  0.25 0.5 0  0.3 0.5 0  0.35 0.5 0  0.4 0.5 0  0.45 0.5 0  0.5 0.5 0  0.55 0.5 0  0.6 0.5 0  0.65 0.5 0  0.7 0.5 0  0.75 0.5 0  0.8 0.5 0  0.85 0.5 0  0.9 0.5 0  0.95 0.5 0  1 0.5 0  0 0.55 0  0.05 0.55 0  0.1 0.55 0  0.15 0.55 0  0.2 0.55 0  0.25 0.55 0  0.3 0.55 0  0.35 0.55 0  0.4 0.55 0  0.45 0.55 0  0.5 0.55 0  0.55 0.55 0  0.6 0.55 0  0.65 0.55 0  0.7 0.55 0  0.75 0.55 0  0.8 0.55 0  0.85 0.55 0  0.9 0.55 0  0.95 0.55 0  1 0.55 0  0 0.6 0  0.05 0.6 0  0.1 0.6 0  0.15 0.6 0  0.2 0.6 0  0.25 0.6 0  0.3 0.6 0  0.35 0.6 0  0.4 0.6 0  0.45 0.6 0  0.5 0.6 0  0.55 0.6 0  0.6 0.6 0  0.65 0.6 0  0.7 0.6 0  0.75 0.6 0  0.8 0.6 0  0.85 0.6 0  0.9 0.6 0  0.95 0.6 0  1 0.6 0  0 0.65 0  0.05 0.65 0  0.1 0.65 0  0.15 0.65 0  0.2 0.65 0  0.25 0.65 0  0.3 0.65 0  0.35 0.65 0  0.4 0.65 0  0.45 0.65 0  0.5 0.65 0  0.55 0.65 0  0.6 0.65 0  0.65 0.65 0  0.7 0.65 0  0.75 0.65 0  0.8 0.65 0  0.85 0.65 0  0.9 0.65 0  0.95 0.65 0  1 0.65 0  0 0.7 0  0.05 0.7 0  0.1 0.7 0  0.15 0.7 0  0.2 0.7 0  0.25 0.7 0  0.3 0.7 0  0.35 0.7 0  0.4 0.7 0  0.45 0.7 0  0.5 0.7 0  0.55 0.7 0  0.6 0.7 0  0.65 0.7 0  0.7 0.7 0  0.75 0.7 0  0.8 0.7 0  0.85 0.7 0  0.9 0.7 0  0.95 0.7 0  1 0.7 0  0 0.75 0  0.05 0.75 0  0.1 0.75 0  0.15 0.75 0  0.2 0.75 0  0.25 0.75 0  0.3 0.75 0  0.35 0.75 0  0.4 0.75 0  0.45 0.75 0  0.5 0.75 0  0.55 0.75 0  0.6 0.75 0  0.65 0.75 0  0.7 0.75 0  0.75 0.75 0  0.8 0.75 0  0.85 0.75 0  0.9 0.75 0  0.95 0.75 0  1 0.75 0  0 0.8 0  0.05 0.8 0  0.1 0.8 0  0.15 0.8 0  0.2 0.8 0  0.25 0.8 0  0.3 0.8 0  0.35 0.8 0  0.4 0.8 0  0.45 0.8 0  0.5 0.8 0  0.55 0.8 0  0.6 0.8 0  0.65 0.8 0  0.7 0.8 0  0.75 0.8 0  0.8 0.8 0  0.85 0.8 0  0.9 0.8 0  0.95 0.8 0  1 0.8 0  0 0.85 0  0.05 0.85 0  0.1 0.85 0  0.15 0.85 0  0.2 0.85 0  0.25 0.85 0  0.3 0.85 0  0.35 0.85 0  0.4 0.85 0  0.45 0.85 0  0.5 0.85 0  0.55 0.85 0  0.6 0.85 0  0.65 0.85 0  0.7 0.85 0  0.75 0.85 0  0.8 0.85 0  0.85 0.85 0  0.9 0.85 0  0.95 0.85 0  1 0.85 0  0 0.9 0  0.05 0.9 0  0.1 0.9 0  0.15 0.9 0  0.2 0.9 0  0.25 0.9 0  0.3 0.9 0  0.35 0.9 0  0.4 0.9 0  0.45 0.9 0  0.5 0.9 0  0.55 0.9 0  0.6 0.9 0  0.65 0.9 0  0.7 0.9 0  0.75 0.9 0  0.8 0.9 0  0.85 0.9 0  0.9 0.9 0  0.95 0.9 0  1 0.9 0  0 0.95 0  0.05 0.95 0  0.1 0.95 0  0.15 0.95 0  0.2 0.95 0  0.25 0.95 0  0.3 0.95 0  0.35 0.95 0  0.4 0.95 0  0.45 0.95 0  0.5 0.95 0  0.55 0.95 0  0.6 0.95 0  0.65 0.95 0  0.7 0.95 0  0.75 0.95 0  0.8 0.95 0  0.85 0.95 0  0.9 0.95 0  0.95 0.95 0  1 0.95 0  0 1 0  0.05 1 0  0.1 1 0  0.15 1 0  0.2 1 0  0.25 1 0  0.3 1 0  0.35 1 0  0.4 1 0  0.45 1 0  0.5 1 0  0.55 1 0  0.6 1 0  0.65 1 0  0.7 1 0  0.75 1 0  0.8 1 0  0.85 1 0  0.9 1 0  0.95 1 0  1 1 0  </DataArray>
</Points>
<Cells>
[...]
<PointData  Vectors="f_137"> 
<DataArray  type="Float64"  Name="f_137"  NumberOfComponents="3" format="ascii">0.0000000000000000e+00 0.0000000000000000e+00 0.0000000000000000e+00  0.0000000000000000e+00 0.0000000000000000e+00 0.0000000000000000e+00  0.0000000000000000e+00 0.0000000000000000e+00 0.0000000000000000e+00  0.0000000000000000e+00 0.0000000000000000e+00 0.0000000000000000e+00  0.0000000000000000e+00 0.0000000000000000e+00 0.0000000000000000e+00  0.0000000000000000e+00 0.0000000000000000e+00 0.0000000000000000e+00  0.0000000000000000e+00 0.0000000000000000e+00 0.0000000000000000e+00  0.0000000000000000e+00 0.0000000000000000e+00 0.0000000000000000e+00  0.0000000000000000e+00 0.0000000000000000e+00 0.0000000000000000e+00  0.0000000000000000e+00 0.0000000000000000e+00 0.0000000000000000e+00  0.0000000000000000e+00 0.0000000000000000e+00 0.0000000000000000e+00  0.0000000000000000e+00 0.0000000000000000e+00 0.0000000000000000e+00  0.0000000000000000e+00 0.0000000000000000e+00 0.0000000000000000e+00  0.0000000000000000e+00 0.0000000000000000e+00 0.0000000000000000e+00  0.0000000000000000e+00 0.0000000000000000e+00 0.0000000000000000e+00  0.0000000000000000e+00 0.0000000000000000e+00 0.0000000000000000e+00  0.0000000000000000e+00 0.0000000000000000e+00 0.0000000000000000e+00  0.0000000000000000e+00 0.0000000000000000e+00 0.0000000000000000e+00  0.0000000000000000e+00 0.0000000000000000e+00 0.0000000000000000e+00  0.0000000000000000e+00 0.0000000000000000e+00 0.0000000000000000e+00  0.0000000000000000e+00 0.0000000000000000e+00 0.0000000000000000e+00  0.0000000000000000e+00 0.0000000000000000e+00 0.0000000000000000e+00  -7.1704235269639258e-04 7.0836868003794655e-04 0.0000000000000000e+00  -1.6613384777457605e-03 6.7536336879654181e-04 0.0000000000000000e+00  -2.5576201859780242e-03 6.3393971298081418e-04 0.0000000000000000e+00  -3.3868187171743058e-03 5.7611880286410802e-04 0.0000000000000000e+00  -4.1276531517289482e-03 5.0362366619227130e-04 0.0000000000000000e+00  -4.7612786025799459e-03 4.1855140004783614e-04 0.0000000000000000e+00  -5.2720926694939437e-03 3.2315926957113776e-04 0.0000000000000000e+00  -5.6476725412126418e-03 2.1980734649289986e-04 0.0000000000000000e+00  -5.8788747886488781e-03 1.1091584926983494e-04 0.0000000000000000e+00  -5.9598819502862943e-03 -1.0571229957291714e-06 0.0000000000000000e+00  -5.8882344006837214e-03 -1.1360634602261021e-04 0.0000000000000000e+00  -5.6648881181187785e-03 -2.2415528585751599e-04 0.0000000000000000e+00  -5.2943085866199256e-03 -3.3003710532179971e-04 0.0000000000000000e+00  -4.7845821701251743e-03 -4.2849832579593269e-04 0.0000000000000000e+00  -4.1474933888172808e-03 -5.1672477956981688e-04 0.0000000000000000e+00  -3.3985190773775341e-03 -5.9186245078291508e-04 0.0000000000000000e+00  -2.5569132141837645e-03 -6.5149747868985730e-04 0.0000000000000000e+00  -1.6465560009667930e-03 -6.9658370223380113e-04 0.0000000000000000e+00  -6.8451692626489457e-04 -6.8181415909649118e-04 0.0000000000000000e+00  0.0000000000000000e+00 0.0000000000000000e+00 0.0000000000000000e+00  0.0000000000000000e+00 0.0000000000000000e+00 0.0000000000000000e+00  -7.3162672632466098e-04 1.6803670274998972e-03 0.0000000000000000e+00  -1.7138947859067055e-03 1.6239812202017161e-03 0.0000000000000000e+00  -2.6535975903877519e-03 1.5270771540407989e-03 0.0000000000000000e+00  -3.5238052383922800e-03 1.3899612175057592e-03 0.0000000000000000e+00  -4.3015525881106905e-03 1.2173031658731094e-03 0.0000000000000000e+00  -4.9674695655132000e-03 1.0143992310586594e-03 0.0000000000000000e+00  -5.5053450674276555e-03 7.8668059303902576e-04 0.0000000000000000e+00  -5.9023113267350812e-03 5.3982295442783301e-04 0.0000000000000000e+00  -6.1488829634200673e-03 2.7959894502874833e-04 0.0000000000000000e+00  -6.2389421589124638e-03 1.1830961965602226e-05 0.0000000000000000e+00  -6.1697353550135732e-03 -2.5757578518459341e-04 0.0000000000000000e+00  -5.9419268080880350e-03 -5.2255867043363310e-04 0.0000000000000000e+00  -5.5597242435969545e-03 -7.7683023011383082e-04 0.0000000000000000e+00  -5.0310579738663550e-03 -1.0138655988805767e-03 0.0000000000000000e+00  -4.3677648411584741e-03 -1.2269709689690504e-03 0.0000000000000000e+00  -3.5856906178281440e-03 -1.4093945634871508e-03 0.0000000000000000e+00  -2.7044457605623234e-03 -1.5547617143517559e-03 0.0000000000000000e+00  -1.7494555943513232e-03 -1.6607431736631838e-03 0.0000000000000000e+00  -7.4542507145143036e-04 -1.6710393141558054e-03 0.0000000000000000e+00  0.0000000000000000e+00 0.0000000000000000e+00 0.0000000000000000e+00  0.0000000000000000e+00 0.0000000000000000e+00 0.0000000000000000e+00  -7.7556409380300742e-04 2.6923791449180666e-03 0.0000000000000000e+00  -1.8152919698263313e-03 2.6167387322264739e-03 0.0000000000000000e+00  -2.8076884640079692e-03 2.4584316646887143e-03 0.0000000000000000e+00  -3.7262851216114173e-03 2.2372794335411995e-03 0.0000000000000000e+00  -4.5461879062153408e-03 1.9589662501475489e-03 0.0000000000000000e+00  -5.2473958398050894e-03 1.6322764832942748e-03 0.0000000000000000e+00  -5.8133088077945852e-03 1.2661352605442661e-03 0.0000000000000000e+00  -6.2309192857446247e-03 8.6967883190715355e-04 0.0000000000000000e+00  -6.4907186491507006e-03 4.5207568687113535e-04 0.0000000000000000e+00  -6.5865527973509577e-03 2.2474411957414581e-05 0.0000000000000000e+00  -6.5155309894788290e-03 -4.0990165160104250e-04 0.0000000000000000e+00  -6.2780514716924514e-03 -8.3557867166502754e-04 0.0000000000000000e+00  -5.8779704828487633e-03 -1.2446627761873619e-03 0.0000000000000000e+00  -5.3228949028213254e-03 -1.6267658744313065e-03 0.0000000000000000e+00  -4.6245306837760696e-03 -1.9710850320153487e-03 0.0000000000000000e+00  -3.7989519195911897e-03 -2.2665799578063996e-03 0.0000000000000000e+00  -2.8665228712866555e-03 -2.5025936594813220e-03 0.0000000000000000e+00  -1.8545629472087354e-03 -2.6745576430022406e-03 0.0000000000000000e+00  -7.8708556997363467e-04 -2.7030648168140463e-03 0.0000000000000000e+00  0.0000000000000000e+00 0.0000000000000000e+00 0.0000000000000000e+00  0.0000000000000000e+00 0.0000000000000000e+00 0.0000000000000000e+00  -8.4073338144160863e-04 3.7766466477511130e-03 0.0000000000000000e+00  -1.9652995982585701e-03 3.6796924659900443e-03 0.0000000000000000e+00  -3.0381610159774968e-03 3.4554288261075708e-03 0.0000000000000000e+00  -4.0292421576616005e-03 3.1429901281264994e-03 0.0000000000000000e+00  -4.9121772868980229e-03 2.7507064849920408e-03 0.0000000000000000e+00  -5.6658890686417983e-03 2.2912259284616405e-03 0.0000000000000000e+00  -6.2733520916402911e-03 1.7773829484841685e-03 0.0000000000000000e+00  -6.7215264308150080e-03 1.2220125154945663e-03 0.0000000000000000e+00  -7.0010285671362523e-03 6.3772969859511618e-04 0.0000000000000000e+00  -7.1057651980913567e-03 3.6908969713586454e-05 0.0000000000000000e+00  -7.0326850294877945e-03 -5.6809350827894799e-04 0.0000000000000000e+00  -6.7817478219615807e-03 -1.1645741570479929e-03 0.0000000000000000e+00  -6.3561566350416928e-03 -1.7391135045259599e-03 0.0000000000000000e+00  -5.7628339860039852e-03 -2.2773527938399897e-03 0.0000000000000000e+00  -5.0130501864666475e-03 -2.7640270767252872e-03 0.0000000000000000e+00  -4.1230158427314314e-03 -3.1832155598126312e-03 0.0000000000000000e+00  -3.1140830533000685e-03 -3.5192277501480667e-03 0.0000000000000000e+00  -2.0159950809882764e-03 -3.7642579150396161e-03 0.0000000000000000e+00  -8.5464295836348131e-04 -3.8133330600736383e-03 0.0000000000000000e+00  0.0000000000000000e+00 0.0000000000000000e+00 0.0000000000000000e+00  0.0000000000000000e+00 0.0000000000000000e+00 0.0000000000000000e+00  -9.2950921531131264e-04 4.9630157458500695e-03 0.0000000000000000e+00  -2.1697508504368457e-03 4.8406372801273120e-03 0.0000000000000000e+00  -3.3514633250380939e-03 4.5421851069394588e-03 0.0000000000000000e+00  -4.4401605880984227e-03 4.1279455733603488e-03 0.0000000000000000e+00  -5.4071707604441410e-03 3.6095502049014296e-03 0.0000000000000000e+00  -6.2302611765432609e-03 3.0044602605006068e-03 0.0000000000000000e+00  -6.8921542244390612e-03 2.3300351291165372e-03 0.0000000000000000e+00  -7.3801452832441793e-03 1.6031419781894023e-03 0.0000000000000000e+00  -7.6853643580269441e-03 8.3985857591045959e-04 0.0000000000000000e+00  -7.8020442833412777e-03 5.5543180745777666e-05 0.0000000000000000e+00  -7.7270116537014903e-03 -7.3470565097218696e-04 0.0000000000000000e+00  -7.4595511870216855e-03 -1.5153510367910228e-03 0.0000000000000000e+00  -7.0017201176253785e-03 -2.2696929067105771e-03 0.0000000000000000e+00  -6.3591014488071649e-03 -2.9793466610911180e-03 0.0000000000000000e+00  -5.5418806261876234e-03 -3.6241219132681700e-03 0.0000000000000000e+00  -4.5659839762522232e-03 -4.1823102841609689e-03 0.0000000000000000e+00  -3.4537766966913886e-03 -4.6319056866737452e-03 0.0000000000000000e+00  -2.2382752165700966e-03 -4.9606539909327965e-03 0.0000000000000000e+00  -9.4840963090308140e-04 -5.0340348731129844e-03 0.0000000000000000e+00  0.0000000000000000e+00 0.0000000000000000e+00 0.0000000000000000e+00  0.0000000000000000e+00 0.0000000000000000e+00 0.0000000000000000e+00  -1.0455085246436557e-03 6.2850103247383618e-03 0.0000000000000000e+00  -2.4368861580589046e-03 6.1317050271871973e-03 0.0000000000000000e+00  -3.7595900418609845e-03 5.7473902096285417e-03 0.0000000000000000e+00  -4.9734131946715795e-03 5.2163801532309579e-03 0.0000000000000000e+00  -6.0468006128560894e-03 4.5550310964110113e-03 0.0000000000000000e+00  -6.9564121043787759e-03 3.7869623799091736e-03 0.0000000000000000e+00  -7.6852710660198576e-03 2.9350175068382427e-03 0.0000000000000000e+00  -8.2217893303594344e-03 2.0205304198176155e-03 0.0000000000000000e+00  -8.5583774210286675e-03 1.0629669235309319e-03 0.0000000000000000e+00  -8.6901295965546143e-03 8.0180740823443478e-05 0.0000000000000000e+00  -8.6138997529805160e-03 -9.1072170658340027e-04 0.0000000000000000e+00  -8.3279821537312632e-03 -1.8921368168961213e-03 0.0000000000000000e+00  -7.8325173299176945e-03 -2.8446414022719152e-03 0.0000000000000000e+00  -7.1306376688167429e-03 -3.7459303992683126e-03 0.0000000000000000e+00  -6.2302281037338782e-03 -4.5703392630653678e-03 0.0000000000000000e+00  -5.1459560843388780e-03 -5.2890687513391490e-03 0.0000000000000000e+00  -3.9008572814017584e-03 -5.8718286556127177e-03 0.0000000000000000e+00  -2.5320200572144873e-03 -6.2998849772264000e-03 0.0000000000000000e+00  -1.0727634426867900e-03 -6.4031887817762260e-03 0.0000000000000000e+00  0.0000000000000000e+00 0.0000000000000000e+00 0.0000000000000000e+00  0.0000000000000000e+00 0.0000000000000000e+00 0.0000000000000000e+00  -1.1939155328499148e-03 7.7820547990804989e-03 0.0000000000000000e+00  -2.7780778177846775e-03 7.5897901618765659e-03 0.0000000000000000e+00  -4.2787534194250786e-03 7.1029707102093767e-03 0.0000000000000000e+00  -5.6481687104564318e-03 6.4342711954355064e-03 0.0000000000000000e+00  -6.8513167659961672e-03 5.6070285070750122e-03 0.0000000000000000e+00  -7.8642285606582134e-03 4.6531100212990192e-03 0.0000000000000000e+00  -8.6713914950956039e-03 3.6022258061320597e-03 0.0000000000000000e+00  -9.2637930773926385e-03 2.4807160799354454e-03 0.0000000000000000e+00  -9.6364887854075675e-03 1.3111663280238207e-03 0.0000000000000000e+00  -9.7863945853709014e-03 1.1301884467721715e-04 0.0000000000000000e+00  -9.7107315494270978e-03 -1.0959082356077293e-03 0.0000000000000000e+00  -9.4064010106045520e-03 -2.2973267414688678e-03 0.0000000000000000e+00  -8.8704634901530122e-03 -3.4702103965971705e-03 0.0000000000000000e+00  -8.1017955951923053e-03 -4.5888112642858683e-03 0.0000000000000000e+00  -7.1038425950027415e-03 -5.6214609152443074e-03 0.0000000000000000e+00  -5.8880646531398809e-03 -6.5304854798102505e-03 0.0000000000000000e+00  -4.4770821217935833e-03 -7.2743166422132317e-03 0.0000000000000000e+00  -2.9127256004939654e-03 -7.8243764348993709e-03 0.0000000000000000e+00  -1.2345351778972006e-03 -7.9666300250885863e-03 0.0000000000000000e+00  0.0000000000000000e+00 0.0000000000000000e+00 0.0000000000000000e+00  0.0000000000000000e+00 0.0000000000000000e+00 0.0000000000000000e+00  -1.3822707846327170e-03 9.5016770095370170e-03 0.0000000000000000e+00  -3.2097365105234693e-03 9.2584942883752082e-03 0.0000000000000000e+00  -4.9318474238036593e-03 8.6452676727371280e-03 0.0000000000000000e+00  -6.4907418922659135e-03 7.8095205219488170e-03 0.0000000000000000e+00  -7.8475587132432658e-03 6.7852200978594313e-03 0.0000000000000000e+00  -8.9789127687928492e-03 5.6156699693280269e-03 0.0000000000000000e+00  -9.8729645556160442e-03 4.3394135039724847e-03 0.0000000000000000e+00  -1.0525809228881897e-02 2.9883927003064338e-03 0.0000000000000000e+00  -1.0937422886861359e-02 1.5876741907849279e-03 0.0000000000000000e+00  -1.1108144062443743e-02 1.5670885852193795e-04 0.0000000000000000e+00  -1.1036214053710018e-02 -1.2881357762809327e-03 0.0000000000000000e+00  -1.0716675307241592e-02 -2.7302340053451117e-03 0.0000000000000000e+00  -1.0141842532964735e-02 -4.1490260462333584e-03 0.0000000000000000e+00  -9.3035362753554670e-03 -5.5165510434640316e-03 0.0000000000000000e+00  -8.1971671698459585e-03 -6.7948876514354103e-03 0.0000000000000000e+00  -6.8273482485245217e-03 -7.9351931880675651e-03 0.0000000000000000e+00  -5.2137482926228537e-03 -8.8801238702401007e-03 0.0000000000000000e+00  -3.4031649906340069e-03 -9.5856789212166362e-03 0.0000000000000000e+00  -1.4437992108430398e-03 -9.7814039632690489e-03 0.0000000000000000e+00  0.0000000000000000e+00 0.0000000000000000e+00 0.0000000000000000e+00  0.0000000000000000e+00 0.0000000000000000e+00 0.0000000000000000e+00  -1.6217711131231267e-03 1.1503246261706774e-02 0.0000000000000000e+00  -3.7558943115702016e-03 1.1190862381747843e-02 0.0000000000000000e+00  -5.7516911043142167e-03 1.0416265500591613e-02 0.0000000000000000e+00  -7.5377079173006298e-03 9.3716878824053190e-03 0.0000000000000000e+00  -9.0713028861694103e-03 8.1076792936430331e-03 0.0000000000000000e+00  -1.0332269746537748e-02 6.6838178057514099e-03 0.0000000000000000e+00  -1.1316402739123104e-02 5.1501719939698520e-03 0.0000000000000000e+00  -1.2029102485577713e-02 3.5447828488820326e-03 0.0000000000000000e+00  -1.2478866090522884e-02 1.8938789683989232e-03 0.0000000000000000e+00  -1.2671960254060369e-02 2.1430244406577347e-04 0.0000000000000000e+00  -1.2608780020652532e-02 -1.4824508817611736e-03 0.0000000000000000e+00  -1.2282068536607758e-02 -3.1851844283630019e-03 0.0000000000000000e+00  -1.1677181705749891e-02 -4.8773868283006243e-03 0.0000000000000000e+00  -1.0774775859712798e-02 -6.5315261749035744e-03 0.0000000000000000e+00  -9.5564334409124121e-03 -8.1040627117331641e-03 0.0000000000000000e+00  -8.0133793031696553e-03 -9.5323868653356646e-03 0.0000000000000000e+00  -6.1569343012945581e-03 -1.0736769534074384e-02 0.0000000000000000e+00  -4.0377777340895845e-03 -1.1648452499465769e-02 0.0000000000000000e+00  -1.7159264400832687e-03 -1.1921467312737624e-02 0.0000000000000000e+00  0.0000000000000000e+00 0.0000000000000000e+00 0.0000000000000000e+00  0.0000000000000000e+00 0.0000000000000000e+00 0.0000000000000000e+00  -1.9294951307221207e-03 1.3863799437765625e-02 0.0000000000000000e+00  -4.4526109186797279e-03 1.3453396239687856e-02 0.0000000000000000e+00  -6.7862877246937488e-03 1.2464978823292767e-02 0.0000000000000000e+00  -8.8406288879070843e-03 1.1150912938503477e-02 0.0000000000000000e+00  -1.0570511004170299e-02 9.5881133750097408e-03 0.0000000000000000e+00  -1.1964123059761342e-02 7.8596718815486868e-03 0.0000000000000000e+00  -1.3031791932916746e-02 6.0306099662388139e-03 0.0000000000000000e+00  -1.3794926595145404e-02 4.1450403511985650e-03 0.0000000000000000e+00  -1.4275944672847072e-02 2.2278049729889541e-03 0.0000000000000000e+00  -1.4490700456271573e-02 2.8898499052158386e-04 0.0000000000000000e+00  -1.4443543483638939e-02 -1.6699142473135492e-03 0.0000000000000000e+00  -1.4124710453065058e-02 -3.6488129013131552e-03 0.0000000000000000e+00  -1.3509999255751234e-02 -5.6410788584495605e-03 0.0000000000000000e+00  -1.2563345979893212e-02 -7.6247442879027270e-03 0.0000000000000000e+00  -1.1243640637144829e-02 -9.5534689774806909e-03 0.0000000000000000e+00  -9.5173098918085747e-03 -1.1348873043399868e-02 0.0000000000000000e+00  -7.3762368264633374e-03 -1.2899598134009082e-02 0.0000000000000000e+00  -4.8703886890291547e-03 -1.4096453545883396e-02 0.0000000000000000e+00  -2.0752226198701845e-03 -1.4487070917697631e-02 0.0000000000000000e+00  0.0000000000000000e+00 0.0000000000000000e+00 0.0000000000000000e+00  0.0000000000000000e+00 0.0000000000000000e+00 0.0000000000000000e+00  -2.3324058367697712e-03 1.6687452136305844e-02 0.0000000000000000e+00  -5.3556721329853672e-03 1.6132115731140519e-02 0.0000000000000000e+00  -8.1076313642906468e-03 1.4848807928073398e-02 0.0000000000000000e+00  -1.0473473191973330e-02 1.3175184770791940e-02 0.0000000000000000e+00  -1.2409921157802572e-02 1.1230706684858292e-02 0.0000000000000000e+00  -1.3923828480181937e-02 9.1324815959504257e-03 0.0000000000000000e+00  -1.5051852943836621e-02 6.9641731539987050e-03 0.0000000000000000e+00  -1.5841702676388628e-02 4.7743752222960166e-03 0.0000000000000000e+00  -1.6337282727928799e-02 2.5817983410575400e-03 0.0000000000000000e+00  -1.6568902525390686e-02 3.8344820811399776e-04 0.0000000000000000e+00  -1.6547445736778348e-02 -1.8363308268923898e-03 0.0000000000000000e+00  -1.6261049484980875e-02 -4.0965355741148209e-03 0.0000000000000000e+00  -1.5673607235429619e-02 -6.4092714868016504e-03 0.0000000000000000e+00  -1.4725806769798296e-02 -8.7673646707415853e-03 0.0000000000000000e+00  -1.3341378115766481e-02 -1.1129260475657521e-02 0.0000000000000000e+00  -1.1442733560563252e-02 -1.3402024294003650e-02 0.0000000000000000e+00  -8.9799334699023035e-03 -1.5431309372937784e-02 0.0000000000000000e+00  -5.9886187704533047e-03 -1.7041594098412868e-02 0.0000000000000000e+00  -2.5621571374993910e-03 -1.7621384374637651e-02 0.0000000000000000e+00  0.0000000000000000e+00 0.0000000000000000e+00 0.0000000000000000e+00  0.0000000000000000e+00 0.0000000000000000e+00 0.0000000000000000e+00  -2.8749045938716855e-03 2.0121288792341104e-02 0.0000000000000000e+00  -6.5544575587064471e-03 1.9341876136114967e-02 0.0000000000000000e+00  -9.8267462598014867e-03 1.7634104179636671e-02 0.0000000000000000e+00  -1.2544206060033588e-02 1.5464126616541399e-02 0.0000000000000000e+00  -1.4677165819441588e-02 1.3020679001172585e-02 0.0000000000000000e+00  -1.6271275020381049e-02 1.0469158642118823e-02 0.0000000000000000e+00  -1.7409341284912026e-02 7.9139717254856010e-03 0.0000000000000000e+00  -1.8180343857490140e-02 5.4027019745683811e-03 0.0000000000000000e+00  -1.8659219863166800e-02 2.9393513227682824e-03 0.0000000000000000e+00  -1.8896276645717944e-02 4.9870363432148908e-04 0.0000000000000000e+00  -1.8912100282340999e-02 -1.9612457322193671e-03 0.0000000000000000e+00  -1.8694319531031411e-02 -4.4886078958467227e-03 0.0000000000000000e+00  -1.8194286355055378e-02 -7.1264114825487935e-03 0.0000000000000000e+00  -1.7324061140170502e-02 -9.8976376219089678e-03 0.0000000000000000e+00  -1.5957000808091940e-02 -1.2782077457184321e-02 0.0000000000000000e+00  -1.3941442233605810e-02 -1.5683554480534503e-02 0.0000000000000000e+00  -1.1142251260271248e-02 -1.8396583699629841e-02 0.0000000000000000e+00  -7.5429684819274994e-03 -2.0638849308643889e-02 0.0000000000000000e+00  -3.2484831898042556e-03 -2.1542300120514484e-02 0.0000000000000000e+00  0.0000000000000000e+00 0.0000000000000000e+00 0.0000000000000000e+00  0.0000000000000000e+00 0.0000000000000000e+00 0.0000000000000000e+00  -3.6334662130385943e-03 2.4384356753457563e-02 0.0000000000000000e+00  -8.1979952431642713e-03 2.3240436567023303e-02 0.0000000000000000e+00  -1.2119959175639423e-02 2.0893724279391401e-02 0.0000000000000000e+00  -1.5212592562594081e-02 1.8015358610994969e-02 0.0000000000000000e+00  -1.7489873683009072e-02 1.4907133898855028e-02 0.0000000000000000e+00  -1.907567549696962