<?xml version="1.0"?>
<VTKFile type="UnstructuredGrid"  version="0.1"  >
<UnstructuredGrid>
<Piece  NumberOfPoints="441" NumberOfCells="800">
<Points>
<DataArray  type="Float64"  NumberOfComponents="3"  format="ascii">0 0 0  0.05 0 0  0.1 0 0  0.15 0 0  0.2 0 0  0.25 0 0  0.3 0 0  0.35 0 0  0.4 0 0  0.45 0 0  0.5 0 0  0.55 0 0  0.6 0 0  0.65 0 0  0.7 0 0  0.75 0 0  0.8 0 0  0.85 0 0  0.9 0 0  0.95 0 0  1 0 0  0 0.05 0  0.05 0.05 0  0.1 0.05 0  0.15 0.05 0  0.2 0.05 0  0.25 0.05 0  0.3 0.05 0  0.35 0.05 0  0.4 0.05 0  0.45 0.05 0  0.5 0.05 0  0.55 0.05 0  0.6 0.05 0  0.65 0.05 0  0.7 0.05 0  0.75 0.05 0  0.8 0.05 0  0.85 0.05 0  0.9 0.05 0  0.95 0.05 0  1 0.05 0  0 0.1 0  0.05 0.1 0  0.1 0.1 0  0.15 0.1 0  0.2 0.1 0  0.25 0.1 0  0.3 0.1 0  0.35 0.1 0  0.4 0.1 0  0.45 0.1 0  0.5 0.1 0  0.55 0.1 0  0.6 0.1 0  0.65 0.1 0  0.7 0.1 0  0.75 0.1 0  0.8 0.1 0  0.85 0.1 0  0.9 0.1 0  0.95 0.1 0  1 0.1 0  0 0.15 0  0.05 0.15 0  0.1 0.15 0  0.15 0.15 0  0.2 0.15 0  0.25 0.15 0  0.3 0.15 0  0.35 0.15 0  0.4 0.15 0  0.45 0.15 0  0.5 0.15 0  0.55 0.15 0  0.6 0.15 0  0.65 0.15 0  0.7 0.15 0  0.75 0.15 0  0.8 0.15 0  0.85 0.15 0  0.9 0.15 0  0.95 0.15 0  1 0.15 0  0 0.2 0  0.05 0.2 0  0.1 0.2 0  0.15 0.2 0  0.2 0.2 0  0.25 0.2 0  0.3 0.2 0  0.35 0.2 0  0.4 0.2 0  0.45 0.2 0  0.5 0.2 0  0.55 0.2 0  0.6 0.2 0  0.65 0.2 0  0.7 0.2 0  0.75 0.2 0  0.8 0.2 0  0.85 0.2 0  0.9 0.2 0  0.95 0.2 0  1 0.2 0  0 0.25 0  0.05 0.25 0  0.1 0.25 0  0.15 0.25 0  0.2 0.25 0  0.25 0.25 0  0.3 0.25 0  0.35 0.25 0  0.4 0.25 0  0.45 0.25 0  0.5 0.25 0  0.55 0.25 0  0.6 0.25 0  0.65 0.25 0  0.7 0.25 0  0.75 0.25 0  0.8 0.25 0  0.85 0.25 0  0.9 0.25 0  0.95 0.25 0  1 0.25 0  0 0.3 0  0.05 0.3 0  0.1 0.3 0  0.15 0.3 0  0.2 0.3 0  0.25 0.3 0  0.3 0.3 0  0.35 0.3 0  0.4 0.3 0  0.45 0.3 0  0.5 0.3 0  0.55 0.3 0  0.6 0.3 0  0.65 0.3 0  0.7 0.3 0  0.75 0.3 0  0.8 0.3 0  0.85 0.3 0  0.9 0.3 0  0.95 0.3 0  1 0.3 0  0 0.35 0  0.05 0.35 0  0.1 0.35 0  0.15 0.35 0  0.2 0.35 0  0.25 0.35 0  0.3 0.35 0  0.35 0.35 0  0.4 0.35 0  0.45 0.35 0  0.5 0.35 0  0.55 0.35 0  0.6 0.35 0  0.65 0.35 0  0.7 0.35 0  0.75 0.35 0  0.8 0.35 0  0.85 0.35 0  0.9 0.35 0  0.95 0.35 0  1 0.35 0  0 0.4 0  0.05 0.4 0  0.1 0.4 0  0.15 0.4 0  0.2 0.4 0  0.25 0.4 0  0.3 0.4 0  0.35 0.4 0  0.4 0.4 0  0.45 0.4 0  0.5 0.4 0  0.55 0.4 0  0.6 0.4 0  0.65 0.4 0  0.7 0.4 0  0.75 0.4 0  0.8 0.4 0  0.85 0.4 0  0.9 0.4 0  0.95 0.4 0  1 0.4 0  0 0.45 0  0.05 0.45 0  0.1 0.45 0  0.15 0.45 0  0.2 0.45 0  0.25 0.45 0  0.3 0.45 0  0.35 0.45 0  0.4 0.45 0  0.45 0.45 0  0.5 0.45 0  0.55 0.45 0  0.6 0.45 0  0.65 0.45 0  0.7 0.45 0  0.75 0.45 0  0.8 0.45 0  0.85 0.45 0  0.9 0.45 0  0.95 0.45 0  1 0.45 0  0 0.5 0  0.05 0.5 0  0.1 0.5 0  0.15 0.5 0  0.2 0.5 0  0.25 0.5 0  0.3 0.5 0  0.35 0.5 0  0.4 0.5 0  0.45 0.5 0  0.5 0.5 0  0.55 0.5 0  0.6 0.5 0  0.65 0.5 0  0.7 0.5 0  0.75 0.5 0  0.8 0.5 0  0.85 0.5 0  0.9 0.5 0  0.95 0.5 0  1 0.5 0  0 0.55 0  0.05 0.55 0  0.1 0.55 0  0.15 0.55 0  0.2 0.55 0  0.25 0.55 0  0.3 0.55 0  0.35 0.55 0  0.4 0.55 0  0.45 0.55 0  0.5 0.55 0  0.55 0.55 0  0.6 0.55 0  0.65 0.55 0  0.7 0.55 0  0.75 0.55 0  0.8 0.55 0  0.85 0.55 0  0.9 0.55 0  0.95 0.55 0  1 0.55 0  0 0.6 0  0.05 0.6 0  0.1 0.6 0  0.15 0.6 0  0.2 0.6 0  0.25 0.6 0  0.3 0.6 0  0.35 0.6 0  0.4 0.6 0  0.45 0.6 0  0.5 0.6 0  0.55 0.6 0  0.6 0.6 0  0.65 0.6 0  0.7 0.6 0  0.75 0.6 0  0.8 0.6 0  0.85 0.6 0  0.9 0.6 0  0.95 0.6 0  1 0.6 0  0 0.65 0  0.05 0.65 0  0.1 0.65 0  0.15 0.65 0  0.2 0.65 0  0.25 0.65 0  0.3 0.65 0  0.35 0.65 0  0.4 0.65 0  0.45 0.65 0  0.5 0.65 0  0.55 0.65 0  0.6 0.65 0  0.65 0.65 0  0.7 0.65 0  0.75 0.65 0  0.8 0.65 0  0.85 0.65 0  0.9 0.65 0  0.95 0.65 0  1 0.65 0  0 0.7 0  0.05 0.7 0  0.1 0.7 0  0.15 0.7 0  0.2 0.7 0  0.25 0.7 0  0.3 0.7 0  0.35 0.7 0  0.4 0.7 0  0.45 0.7 0  0.5 0.7 0  0.55 0.7 0  0.6 0.7 0  0.65 0.7 0  0.7 0.7 0  0.75 0.7 0  0.8 0.7 0  0.85 0.7 0  0.9 0.7 0  0.95 0.7 0  1 0.7 0  0 0.75 0  0.05 0.75 0  0.1 0.75 0  0.15 0.75 0  0.2 0.75 0  0.25 0.75 0  0.3 0.75 0  0.35 0.75 0  0.4 0.75 0  0.45 0.75 0  0.5 0.75 0  0.55 0.75 0  0.6 0.75 0  0.65 0.75 0  0.7 0.75 0  0.75 0.75 0  0.8 0.75 0  0.85 0.75 0  0.9 0.75 0  0.95 0.75 0  1 0.75 0  0 0.8 0  0.05 0.8 0  0.1 0.8 0  0.15 0.8 0  0.2 0.8 0  0.25 0.8 0  0.3 0.8 0  0.35 0.8 0  0.4 0.8 0  0.45 0.8 0  0.5 0.8 0  0.55 0.8 0  0.6 0.8 0  0.65 0.8 0  0.7 0.8 0  0.75 0.8 0  0.8 0.8 0  0.85 0.8 0  0.9 0.8 0  0.95 0.8 0  1 0.8 0  0 0.85 0  0.05 0.85 0  0.1 0.85 0  0.15 0.85 0  0.2 0.85 0  0.25 0.85 0  0.3 0.85 0  0.35 0.85 0  0.4 0.85 0  0.45 0.85 0  0.5 0.85 0  0.55 0.85 0  0.6 0.85 0  0.65 0.85 0  0.7 0.85 0  0.75 0.85 0  0.8 0.85 0  0.85 0.85 0  0.9 0.85 0  0.95 0.85 0  1 0.85 0  0 0.9 0  0.05 0.9 0  0.1 0.9 0  0.15 0.9 0  0.2 0.9 0  0.25 0.9 0  0.3 0.9 0  0.35 0.9 0  0.4 0.9 0  0.45 0.9 0  0.5 0.9 0  0.55 0.9 0  0.6 0.9 0  0.65 0.9 0  0.7 0.9 0  0.75 0.9 0  0.8 0.9 0  0.85 0.9 0  0.9 0.9 0  0.95 0.9 0  1 0.9 0  0 0.95 0  0.05 0.95 0  0.1 0.95 0  0.15 0.95 0  0.2 0.95 0  0.25 0.95 0  0.3 0.95 0  0.35 0.95 0  0.4 0.95 0  0.45 0.95 0  0.5 0.95 0  0.55 0.95 0  0.6 0.95 0  0.65 0.95 0  0.7 0.95 0  0.75 0.95 0  0.8 0.95 0  0.85 0.95 0  0.9 0.95 0  0.95 0.95 0  1 0.95 0  0 1 0  0.05 1 0  0.1 1 0  0.15 1 0  0.2 1 0  0.25 1 0  0.3 1 0  0.35 1 0  0.4 1 0  0.45 1 0  0.5 1 0  0.55 1 0  0.6 1 0  0.65 1 0  0.7 1 0  0.75 1 0  0.8 1 0  0.85 1 0  0.9 1 0  0.95 1 0  1 1 0  </DataArray>
</Points>
<Cells>
[...]
<PointData  Vectors="f_137"> 
<DataArray  type="Float64"  Name="f_137"  NumberOfComponents="3" format="ascii">0.0000000000000000e+00 0.0000000000000000e+00 0.0000000000000000e+00  0.0000000000000000e+00 0.0000000000000000e+00 0.0000000000000000e+00  0.0000000000000000e+00 0.0000000000000000e+00 0.0000000000000000e+00  0.0000000000000000e+00 0.0000000000000000e+00 0.0000000000000000e+00  0.0000000000000000e+00 0.0000000000000000e+00 0.0000000000000000e+00  0.0000000000000000e+00 0.0000000000000000e+00 0.0000000000000000e+00  0.0000000000000000e+00 0.0000000000000000e+00 0.0000000000000000e+00  0.0000000000000000e+00 0.0000000000000000e+00 0.0000000000000000e+00  0.0000000000000000e+00 0.0000000000000000e+00 0.0000000000000000e+00  0.0000000000000000e+00 0.0000000000000000e+00 0.0000000000000000e+00  0.0000000000000000e+00 0.0000000000000000e+00 0.0000000000000000e+00  0.0000000000000000e+00 0.0000000000000000e+00 0.0000000000000000e+00  0.0000000000000000e+00 0.0000000000000000e+00 0.0000000000000000e+00  0.0000000000000000e+00 0.0000000000000000e+00 0.0000000000000000e+00  0.0000000000000000e+00 0.0000000000000000e+00 0.0000000000000000e+00  0.0000000000000000e+00 0.0000000000000000e+00 0.0000000000000000e+00  0.0000000000000000e+00 0.0000000000000000e+00 0.0000000000000000e+00  0.0000000000000000e+00 0.0000000000000000e+00 0.0000000000000000e+00  0.0000000000000000e+00 0.0000000000000000e+00 0.0000000000000000e+00  0.0000000000000000e+00 0.0000000000000000e+00 0.0000000000000000e+00  0.0000000000000000e+00 0.0000000000000000e+00 0.0000000000000000e+00  0.0000000000000000e+00 0.0000000000000000e+00 0.0000000000000000e+00  -4.4445595654002217e-04 4.3332030498959337e-04 0.0000000000000000e+00  -8.8171223393993328e-04 4.3676529129373239e-04 0.0000000000000000e+00  -1.3025753894101372e-03 4.0551689045685633e-04 0.0000000000000000e+00  -1.6897506770324408e-03 3.6395474456357913e-04 0.0000000000000000e+00  -2.0330321441463938e-03 3.1348081729255561e-04 0.0000000000000000e+00  -2.3240876836484185e-03 2.5548322290913433e-04 0.0000000000000000e+00  -2.5560221904878814e-03 1.9151854982593080e-04 0.0000000000000000e+00  -2.7234806892333248e-03 1.2318438968337612e-04 0.0000000000000000e+00  -2.8226811612817658e-03 5.2079678492281016e-05 0.0000000000000000e+00  -2.8514065290312358e-03 -2.0207183178465558e-05 0.0000000000000000e+00  -2.8089921227625872e-03 -9.2092670531034978e-05 0.0000000000000000e+00  -2.6963247603256891e-03 -1.6198473197885684e-04 0.0000000000000000e+00  -2.5158574485210227e-03 -2.2827314522057588e-04 0.0000000000000000e+00  -2.2716323585194346e-03 -2.8933526089964872e-04 0.0000000000000000e+00  -1.9692953398140530e-03 -3.4355331100039386e-04 0.0000000000000000e+00  -1.6160911804658307e-03 -3.8920318487450863e-04 0.0000000000000000e+00  -1.2209033503417057e-03 -4.2311501058537871e-04 0.0000000000000000e+00  -7.9462677825747224e-04 -4.3197688932687677e-04 0.0000000000000000e+00  -3.5352119326391386e-04 -3.5215993255287525e-04 0.0000000000000000e+00  0.0000000000000000e+00 0.0000000000000000e+00 0.0000000000000000e+00  0.0000000000000000e+00 0.0000000000000000e+00 0.0000000000000000e+00  -4.8759318352825594e-04 8.8638426822498860e-04 0.0000000000000000e+00  -1.0139721787419623e-03 9.4255299964372385e-04 0.0000000000000000e+00  -1.5159984919681283e-03 8.8345368805222855e-04 0.0000000000000000e+00  -1.9790633878521112e-03 7.9672062412968229e-04 0.0000000000000000e+00  -2.3906357081021463e-03 6.9025801111162130e-04 0.0000000000000000e+00  -2.7405789037612425e-03 5.6726429367153072e-04 0.0000000000000000e+00  -3.0207044789922429e-03 4.3107485051045551e-04 0.0000000000000000e+00  -3.2246891141679995e-03 2.8511630736904403e-04 0.0000000000000000e+00  -3.3480534039404030e-03 1.3280608985487326e-04 0.0000000000000000e+00  -3.3881218948170378e-03 -2.2476366773404524e-05 0.0000000000000000e+00  -3.3439879148666855e-03 -1.7737228751989279e-04 0.0000000000000000e+00  -3.2165069425895971e-03 -3.2850454915136893e-04 0.0000000000000000e+00  -3.0083258825738951e-03 -4.7244400810567068e-04 0.0000000000000000e+00  -2.7239384073035654e-03 -6.0570796531852198e-04 0.0000000000000000e+00  -2.3697418159033127e-03 -7.2479741884032083e-04 0.0000000000000000e+00  -1.9540688943882546e-03 -8.2609148670760091e-04 0.0000000000000000e+00  -1.4872215408281838e-03 -9.0398912414688603e-04 0.0000000000000000e+00  -9.8187484379684184e-04 -9.3678288253018298e-04 0.0000000000000000e+00  -4.5772319123383237e-04 -8.0422879329415762e-04 0.0000000000000000e+00  0.0000000000000000e+00 0.0000000000000000e+00 0.0000000000000000e+00  0.0000000000000000e+00 0.0000000000000000e+00 0.0000000000000000e+00  -5.2082272775812416e-04 1.3699364451872260e-03 0.0000000000000000e+00  -1.0848465404167957e-03 1.4760695157584173e-03 0.0000000000000000e+00  -1.6251369589905746e-03 1.3899833388898498e-03 0.0000000000000000e+00  -2.1226128637894625e-03 1.2555568391634147e-03 0.0000000000000000e+00  -2.5642186239484776e-03 1.0895278381569109e-03 0.0000000000000000e+00  -2.9393081795671960e-03 8.9759381416942244e-04 0.0000000000000000e+00  -3.2393723231916595e-03 6.8504636874894113e-04 0.0000000000000000e+00  -3.4579516516035809e-03 4.5724178544367142e-04 0.0000000000000000e+00  -3.5905268196733536e-03 2.1946143988980750e-04 0.0000000000000000e+00  -3.6344050789501228e-03 -2.3123639872244141e-05 0.0000000000000000e+00  -3.5886386389610029e-03 -2.6540168093768809e-04 0.0000000000000000e+00  -3.4540052495208124e-03 -5.0222803318285465e-04 0.0000000000000000e+00  -3.2330613982842595e-03 -7.2833991686142971e-04 0.0000000000000000e+00  -2.9302546617858949e-03 -9.3832590030193343e-04 0.0000000000000000e+00  -2.5520596996867402e-03 -1.1266719273487701e-03 0.0000000000000000e+00  -2.1070938165317159e-03 -1.2876622435189641e-03 0.0000000000000000e+00  -1.6062256387377393e-03 -1.4129618288488942e-03 0.0000000000000000e+00  -1.0631091717742257e-03 -1.4716461204094134e-03 0.0000000000000000e+00  -4.9936432817078663e-04 -1.2830304909964214e-03 0.0000000000000000e+00  0.0000000000000000e+00 0.0000000000000000e+00 0.0000000000000000e+00  0.0000000000000000e+00 0.0000000000000000e+00 0.0000000000000000e+00  -5.6845606031101926e-04 1.8904306683127006e-03 0.0000000000000000e+00  -1.1803724037115024e-03 2.0493686418385413e-03 0.0000000000000000e+00  -1.7657306027230135e-03 1.9327365481692142e-03 0.0000000000000000e+00  -2.3035601924539010e-03 1.7462057325107431e-03 0.0000000000000000e+00  -2.7796811693703593e-03 1.5154887112001209e-03 0.0000000000000000e+00  -3.1829427697593836e-03 1.2491611363398241e-03 0.0000000000000000e+00  -3.5047025278917691e-03 9.5476123562516016e-04 0.0000000000000000e+00  -3.7385844979513695e-03 6.3970867880469432e-04 0.0000000000000000e+00  -3.8802396972244845e-03 3.1117351226996466e-04 0.0000000000000000e+00  -3.9271116993264722e-03 -2.3938072872456703e-05 0.0000000000000000e+00  -3.8782746938874372e-03 -3.5885963722050141e-04 0.0000000000000000e+00  -3.7343903469927143e-03 -6.8677113327930467e-04 0.0000000000000000e+00  -3.4977986465905319e-03 -1.0006138471153291e-03 0.0000000000000000e+00  -3.1727242905834445e-03 -1.2929914611519108e-03 0.0000000000000000e+00  -2.7655474129912191e-03 -1.5562028977422599e-03 0.0000000000000000e+00  -2.2850691111202795e-03 -1.7821437645271297e-03 0.0000000000000000e+00  -1.7427599813202921e-03 -1.9592810845211121e-03 0.0000000000000000e+00  -1.1534471385552245e-03 -2.0463685619762609e-03 0.0000000000000000e+00  -5.4118897517920503e-04 -1.7972916925719769e-03 0.0000000000000000e+00  0.0000000000000000e+00 0.0000000000000000e+00 0.0000000000000000e+00  0.0000000000000000e+00 0.0000000000000000e+00 0.0000000000000000e+00  -6.3246849322552072e-04 2.4618633222923108e-03 0.0000000000000000e+00  -1.3091736804899578e-03 2.6770400050246412e-03 0.0000000000000000e+00  -1.9545673690871289e-03 2.5251815373609036e-03 0.0000000000000000e+00  -2.5455322063430391e-03 2.2799726725328019e-03 0.0000000000000000e+00  -3.0665831618680974e-03 1.9772050094127715e-03 0.0000000000000000e+00  -3.5060590882949505e-03 1.6288849593420569e-03 0.0000000000000000e+00  -3.8553419800636708e-03 1.2451477973272186e-03 0.0000000000000000e+00  -4.1084004179877008e-03 8.3565494086281281e-04 0.0000000000000000e+00  -4.2613131455714690e-03 4.0946279137645686e-04 0.0000000000000000e+00  -4.3118387939663060e-03 -2.4925299001660839e-05 0.0000000000000000e+00  -4.2591260908311545e-03 -4.5929571654617810e-04 0.0000000000000000e+00  -4.1036311022422025e-03 -8.8535295286196528e-04 0.0000000000000000e+00  -3.8472643888832043e-03 -1.2943568645284315e-03 0.0000000000000000e+00  -3.4937444793109802e-03 -1.6768885617097094e-03 0.0000000000000000e+00  -3.0490862288744406e-03 -2.0228278654271601e-03 0.0000000000000000e+00  -2.5221171988558519e-03 -2.3212440250536086e-03 0.0000000000000000e+00  -1.9249640871150473e-03 -2.5567167762033478e-03 0.0000000000000000e+00  -1.2739734534349689e-03 -2.6761009602465249e-03 0.0000000000000000e+00  -5.9651356837757863e-04 -2.3606714744701198e-03 0.0000000000000000e+00  0.0000000000000000e+00 0.0000000000000000e+00 0.0000000000000000e+00  0.0000000000000000e+00 0.0000000000000000e+00 0.0000000000000000e+00  -7.1553360181607654e-04 3.1007726145179330e-03 0.0000000000000000e+00  -1.4765378386977102e-03 3.3762811999889274e-03 0.0000000000000000e+00  -2.1994307777341085e-03 3.1825450564615127e-03 0.0000000000000000e+00  -2.8581056743818135e-03 2.8694250985199627e-03 0.0000000000000000e+00  -3.4355668789985390e-03 2.4844863327559748e-03 0.0000000000000000e+00  -3.9197620962203627e-03 2.0439898564206319e-03 0.0000000000000000e+00  -4.3024851793709695e-03 1.5611915217382311e-03 0.0000000000000000e+00  -4.5785341955545764e-03 1.0482026649163054e-03 0.0000000000000000e+00  -4.7448645923945463e-03 5.1589258807165387e-04 0.0000000000000000e+00  -4.7998524770878574e-03 -2.5922699636334344e-05 0.0000000000000000e+00  -4.7428088039243041e-03 -5.6797581091601193e-04 0.0000000000000000e+00  -4.5738339138169824e-03 -1.1008811974866834e-03 0.0000000000000000e+00  -4.2940446144227153e-03 -1.6144754040026750e-03 0.0000000000000000e+00  -3.9061475829263404e-03 -2.0973396664553863e-03 0.0000000000000000e+00  -3.4152669529710139e-03 -2.5366444250218682e-03 0.0000000000000000e+00  -2.8298704251302370e-03 -2.9179989176602284e-03 0.0000000000000000e+00  -2.1626623746973449e-03 -3.2210613705897892e-03 0.0000000000000000e+00  -1.4318902705954351e-03 -3.3785386702148293e-03 0.0000000000000000e+00  -6.6934371574087399e-04 -2.9894127503795223e-03 0.0000000000000000e+00  0.0000000000000000e+00 0.0000000000000000e+00 0.0000000000000000e+00  0.0000000000000000e+00 0.0000000000000000e+00 0.0000000000000000e+00  -8.2163022128093049e-04 3.8265541541197658e-03 0.0000000000000000e+00  -1.6899681356068452e-03 4.1670665287023758e-03 0.0000000000000000e+00  -2.5103880267548467e-03 3.9218945981350636e-03 0.0000000000000000e+00  -3.2527990932857899e-03 3.5280254677973631e-03 0.0000000000000000e+00  -3.8985091947465285e-03 3.0472208989672689e-03 0.0000000000000000e+00  -4.4354904613018147e-03 2.5012506301883377e-03 0.0000000000000000e+00  -4.8567102413825010e-03 1.9072100691516344e-03 0.0000000000000000e+00  -5.1586655046536242e-03 1.2798793594808473e-03 0.0000000000000000e+00  -5.3399499223374790e-03 6.3172030386662360e-04 0.0000000000000000e+00  -5.4000582501427348e-03 -2.6674435159332236e-05 0.0000000000000000e+00  -5.3386146527468507e-03 -6.8568137741323364e-04 0.0000000000000000e+00  -5.1551326863460856e-03 -1.3355168863821933e-03 0.0000000000000000e+00  -4.8493478363936526e-03 -1.9651069511065064e-03 0.0000000000000000e+00  -4.4221027314883506e-03 -2.5611971043490059e-03 0.0000000000000000e+00  -3.8766845015607851e-03 -3.1079231951839600e-03 0.0000000000000000e+00  -3.2204081144589615e-03 -3.5865404605012808e-03 0.0000000000000000e+00  -2.4662051174012315e-03 -3.9702371800164199e-03 0.0000000000000000e+00  -1.6345881520040532e-03 -4.1743662688579104e-03 0.0000000000000000e+00  -7.6323408459963004e-04 -3.7028034489312500e-03 0.0000000000000000e+00  0.0000000000000000e+00 0.0000000000000000e+00 0.0000000000000000e+00  0.0000000000000000e+00 0.0000000000000000e+00 0.0000000000000000e+00  -9.5657581729585977e-04 4.6627761752489920e-03 0.0000000000000000e+00  -1.9603107912517779e-03 5.0730289704904400e-03 0.0000000000000000e+00  -2.9016884175390046e-03 4.7625356929360410e-03 0.0000000000000000e+00  -3.7453945554129157e-03 4.2699665825267777e-03 0.0000000000000000e+00  -4.4710609735937852e-03 3.6748274439261080e-03 0.0000000000000000e+00  -5.0676080790183504e-03 3.0062443580497603e-03 0.0000000000000000e+00  -5.5305773367702246e-03 2.2861144859553785e-03 0.0000000000000000e+00  -5.8596346793610655e-03 1.5320465380244826e-03 0.0000000000000000e+00  -6.0562402957002196e-03 7.5759840226178969e-04 0.0000000000000000e+00  -6.1217966587830339e-03 -2.6805334702150813e-05 0.0000000000000000e+00  -6.0564871177633912e-03 -8.1235554470225927e-04 0.0000000000000000e+00  -5.8589025164664842e-03 -1.5900433920530066e-03 0.0000000000000000e+00  -5.5264969212539391e-03 -2.3488248995887501e-03 0.0000000000000000e+00  -5.0568807749532567e-03 -3.0740629096574195e-03 0.0000000000000000e+00  -4.4498859250094499e-03 -3.7465726404573127e-03 0.0000000000000000e+00  -3.7101789459822879e-03 -4.3420374358205029e-03 0.0000000000000000e+00  -2.8500421852833118e-03 -4.8248574842341295e-03 0.0000000000000000e+00  -1.8925059603827586e-03 -5.0883828344310709e-03 0.0000000000000000e+00  -8.8313766451339492e-04 -4.5243894729984635e-03 0.0000000000000000e+00  0.0000000000000000e+00 0.0000000000000000e+00 0.0000000000000000e+00  0.0000000000000000e+00 0.0000000000000000e+00 0.0000000000000000e+00  -1.1290457101117636e-03 5.6390986871853298e-03 0.0000000000000000e+00  -2.3034681294107477e-03 6.1228512533703051e-03 0.0000000000000000e+00  -3.3937136579000010e-03 5.7264519609051337e-03 0.0000000000000000e+00  -4.3577072397326085e-03 5.1097531423742806e-03 0.0000000000000000e+00  -5.1739022760209398e-03 4.3752497841623144e-03 0.0000000000000000e+00  -5.8340340749511383e-03 3.5621149273649842e-03 0.0000000000000000e+00  -6.3386755171780567e-03 2.6982486717919540e-03 0.0000000000000000e+00  -6.6930481587907141e-03 1.8040326703946332e-03 0.0000000000000000e+00  -6.9033662465196330e-03 8.9312983028784303e-04 0.0000000000000000e+00  -6.9741146438741250e-03 -2.5782110380442760e-05 0.0000000000000000e+00  -6.9064129854799145e-03 -9.4657265650892558e-04 0.0000000000000000e+00  -6.6974736564634043e-03 -1.8628937261817627e-03 0.0000000000000000e+00  -6.3411677155762926e-03 -2.7653573007720539e-03 0.0000000000000000e+00  -5.8297784318040568e-03 -3.6389487005131630e-03 0.0000000000000000e+00  -5.1570195997994433e-03 -4.4611060497556877e-03 0.0000000000000000e+00  -4.3222023361863312e-03 -5.2003886806435348e-03 0.0000000000000000e+00  -3.3350608764427620e-03 -5.8089522561105972e-03 0.0000000000000000e+00  -2.2210430651613483e-03 -6.1512187469353261e-03 0.0000000000000000e+00  -1.0364074953395635e-03 -5.4839635294324680e-03 0.0000000000000000e+00  0.0000000000000000e+00 0.0000000000000000e+00 0.0000000000000000e+00  0.0000000000000000e+00 0.0000000000000000e+00 0.0000000000000000e+00  -1.3523543201962934e-03 6.7942256643319845e-03 0.0000000000000000e+00  -2.7433341828295632e-03 7.3522387268972278e-03 0.0000000000000000e+00  -4.0161714651876807e-03 6.8386458773921016e-03 0.0000000000000000e+00  -5.1202347099068863e-03 6.0611495815029561e-03 0.0000000000000000e+00  -6.0343810698350485e-03 5.1530858413678503e-03 0.0000000000000000e+00  -6.7567761414342791e-03 4.1674897918314979e-03 0.0000000000000000e+00  -7.2972199205146712e-03 3.1395559905447600e-03 0.0000000000000000e+00  -7.6702165310034509e-03 2.0918210872127693e-03 0.0000000000000000e+00  -7.8894772684700160e-03 1.0362043953432230e-03 0.0000000000000000e+00  -7.9641984004433335e-03 -2.2877069977753706e-05 0.0000000000000000e+00  -7.8969727898838271e-03 -1.0847829341345521e-03 0.0000000000000000e+00  -7.6830772510185392e-03 -2.1486960659366301e-03 0.0000000000000000e+00  -7.3110604774244354e-03 -3.2095505532414937e-03 0.0000000000000000e+00  -6.7648532084247769e-03 -4.2539700890935539e-03 0.0000000000000000e+00  -6.0278335189155544e-03 -5.2566321663039635e-03 0.0000000000000000e+00  -5.0891764539075001e-03 -6.1772718619719476e-03 0.0000000000000000e+00  -3.9521495182297944e-03 -6.9507587133910195e-03 0.0000000000000000e+00  -2.6435563387872535e-03 -7.4019298247403288e-03 0.0000000000000000e+00  -1.2342928634733309e-03 -6.6207381715789092e-03 0.0000000000000000e+00  0.0000000000000000e+00 0.0000000000000000e+00 0.0000000000000000e+00  0.0000000000000000e+00 0.0000000000000000e+00 0.0000000000000000e+00  -1.6476543371505220e-03 8.1806438672795655e-03 0.0000000000000000e+00  -3.3169174055918391e-03 8.8067160414318172e-03 0.0000000000000000e+00  -4.8134003923168585e-03 8.1270478651455751e-03 0.0000000000000000e+00  -6.0762266917841687e-03 7.1348577780759852e-03 0.0000000000000000e+00  -7.0886978997671633e-03 6.0061995736075844e-03 0.0000000000000000e+00  -7.8623013739973022e-03 4.8130754224105371e-03 0.0000000000000000e+00  -8.4230682608294853e-03 3.5988070487641614e-03 0.0000000000000000e+00  -8.8003343116699884e-03 2.3861763122138770e-03 0.0000000000000000e+00  -9.0189899510307557e-03 1.1820715347137265e-03 0.0000000000000000e+00  -9.0949711303306927e-03 -1.7153804012240754e-05 0.0000000000000000e+00  -9.0330305917344141e-03 -1.2203213534178079e-03 0.0000000000000000e+00  -8.8259484375795613e-03 -2.4362326612760651e-03 0.0000000000000000e+00  -8.4549071786090644e-03 -3.6682803863903840e-03 0.0000000000000000e+00  -7.8914877646964268e-03 -4.9084959374790663e-03 0.0000000000000000e+00  -7.1023855086519080e-03 -6.1310724298257171e-03 0.0000000000000000e+00  -6.0583752012185682e-03 -7.2857792751907288e-03 0.0000000000000000e+00  -4.7482860810963076e-03 -8.2833066273602148e-03 0.0000000000000000e+00  -3.1967087383763769e-03 -8.8920356369114762e-03 0.0000000000000000e+00  -1.4946222403211913e-03 -7.9886329605427936e-03 0.0000000000000000e+00  0.0000000000000000e+00 0.0000000000000000e+00 0.0000000000000000e+00  0.0000000000000000e+00 0.0000000000000000e+00 0.0000000000000000e+00  -2.0499408889434914e-03 9.8724958390708044e-03 0.0000000000000000e+00  -4.0835822700774540e-03 1.0545515864315640e-02 0.0000000000000000e+00  -5.8533135088886324e-03 9.6211499693707788e-03 0.0000000000000000e+00  -7.2878239155815643e-03 8.3336327336989736e-03 0.0000000000000000e+00  -8.3845017629543776e-03 6.9197111658718356e-03 0.0000000000000000e+00  -9.1812269169335263e-03 5.4762904541671665e-03 0.0000000000000000e+00  -9.7316174582880045e-03 4.0536569488242719e-03 0.0000000000000000e+00  -1.0087507493915819e-02 2.6701928363236454e-03 0.0000000000000000e+00  -1.0289272885594232e-02 1.3221720865963511e-03 0.0000000000000000e+00  -1.0361649953113821e-02 -7.5095920294734684e-06 0.0000000000000000e+00  -1.0312276734417923e-02 -1.3422686581829560e-03 0.0000000000000000e+00  -1.0131116023536953e-02 -2.7058428134335965e-03 0.0000000000000000e+00  -9.7901648475290752e-03 -4.1160656154224816e-03 0.0000000000000000e+00  -9.2441401389489562e-03 -5.5769459574614337e-03 0.0000000000000000e+00  -8.4343591197388133e-03 -7.0681622274914877e-03 0.0000000000000000e+00  -7.2993321821504696e-03 -8.5310151380140632e-03 0.0000000000000000e+00  -5.7972800176967435e-03 -9.8438435924792841e-03 0.0000000000000000e+00  -3.9404743439120284e-03 -1.0691825736660320e-02 0.0000000000000000e+00  -1.8468920680456014e-03 -9.6657488247942104e-03 0.0000000000000000e+00  0.0000000000000000e+00 0.0000000000000000e+00 0.0000000000000000e+00  0.0000000000000000e+00 0.0000000000000000e+00 0.0000000000000000e+00  -2.6201731066570876e-03 1.1979260440667914e-02 0.0000000000000000e+00  -5.1424128383410032e-03 1.2646601956844259e-02 0.0000000000000000e+00  -7.2427599736118150e-03 1.1347190813653296e-02 0.0000000000000000e+00  -8.8449732413922576e-03 9.6421751692649278e-03 0.0000000000000000e+00  -9.9831227569508879e-03 7.8555387884380965e-03 0.0000000000000000e+00  -1.0746