<?xml version="1.0"?>
<VTKFile type="UnstructuredGrid"  version="0.1"  >
<UnstructuredGrid>
<Piece  NumberOfPoints="441" NumberOfCells="800">
<Points>
<DataArray  type="Float64"  NumberOfComponents="3"  format="ascii">0 0 0  0.05 0 0  0.1 0 0  0.15 0 0  0.2 0 0  0.25 0 0  0.3 0 0  0.35 0 0  0.4 0 0  0.45 0 0  0.5 0 0  0.55 0 0  0.6 0 0  0.65 0 0  0.7 0 0  0.75 0 0  0.8 0 0  0.85 0 0  0.9 0 0  0.95 0 0  1 0 0  0 0.05 0  0.05 0.05 0  0.1 0.05 0  0.15 0.05 0  0.2 0.05 0  0.25 0.05 0  0.3 0.05 0  0.35 0.05 0  0.4 0.05 0  0.45 0.05 0  0.5 0.05 0  0.55 0.05 0  0.6 0.05 0  0.65 0.05 0  0.7 0.05 0  0.75 0.05 0  0.8 0.05 0  0.85 0.05 0  0.9 0.05 0  0.95 0.05 0  1 0.05 0  0 0.1 0  0.05 0.1 0  0.1 0.1 0  0.15 0.1 0  0.2 0.1 0  0.25 0.1 0  0.3 0.1 0  0.35 0.1 0  0.4 0.1 0  0.45 0.1 0  0.5 0.1 0  0.55 0.1 0  0.6 0.1 0  0.65 0.1 0  0.7 0.1 0  0.75 0.1 0  0.8 0.1 0  0.85 0.1 0  0.9 0.1 0  0.95 0.1 0  1 0.1 0  0 0.15 0  0.05 0.15 0  0.1 0.15 0  0.15 0.15 0  0.2 0.15 0  0.25 0.15 0  0.3 0.15 0  0.35 0.15 0  0.4 0.15 0  0.45 0.15 0  0.5 0.15 0  0.55 0.15 0  0.6 0.15 0  0.65 0.15 0  0.7 0.15 0  0.75 0.15 0  0.8 0.15 0  0.85 0.15 0  0.9 0.15 0  0.95 0.15 0  1 0.15 0  0 0.2 0  0.05 0.2 0  0.1 0.2 0  0.15 0.2 0  0.2 0.2 0  0.25 0.2 0  0.3 0.2 0  0.35 0.2 0  0.4 0.2 0  0.45 0.2 0  0.5 0.2 0  0.55 0.2 0  0.6 0.2 0  0.65 0.2 0  0.7 0.2 0  0.75 0.2 0  0.8 0.2 0  0.85 0.2 0  0.9 0.2 0  0.95 0.2 0  1 0.2 0  0 0.25 0  0.05 0.25 0  0.1 0.25 0  0.15 0.25 0  0.2 0.25 0  0.25 0.25 0  0.3 0.25 0  0.35 0.25 0  0.4 0.25 0  0.45 0.25 0  0.5 0.25 0  0.55 0.25 0  0.6 0.25 0  0.65 0.25 0  0.7 0.25 0  0.75 0.25 0  0.8 0.25 0  0.85 0.25 0  0.9 0.25 0  0.95 0.25 0  1 0.25 0  0 0.3 0  0.05 0.3 0  0.1 0.3 0  0.15 0.3 0  0.2 0.3 0  0.25 0.3 0  0.3 0.3 0  0.35 0.3 0  0.4 0.3 0  0.45 0.3 0  0.5 0.3 0  0.55 0.3 0  0.6 0.3 0  0.65 0.3 0  0.7 0.3 0  0.75 0.3 0  0.8 0.3 0  0.85 0.3 0  0.9 0.3 0  0.95 0.3 0  1 0.3 0  0 0.35 0  0.05 0.35 0  0.1 0.35 0  0.15 0.35 0  0.2 0.35 0  0.25 0.35 0  0.3 0.35 0  0.35 0.35 0  0.4 0.35 0  0.45 0.35 0  0.5 0.35 0  0.55 0.35 0  0.6 0.35 0  0.65 0.35 0  0.7 0.35 0  0.75 0.35 0  0.8 0.35 0  0.85 0.35 0  0.9 0.35 0  0.95 0.35 0  1 0.35 0  0 0.4 0  0.05 0.4 0  0.1 0.4 0  0.15 0.4 0  0.2 0.4 0  0.25 0.4 0  0.3 0.4 0  0.35 0.4 0  0.4 0.4 0  0.45 0.4 0  0.5 0.4 0  0.55 0.4 0  0.6 0.4 0  0.65 0.4 0  0.7 0.4 0  0.75 0.4 0  0.8 0.4 0  0.85 0.4 0  0.9 0.4 0  0.95 0.4 0  1 0.4 0  0 0.45 0  0.05 0.45 0  0.1 0.45 0  0.15 0.45 0  0.2 0.45 0  0.25 0.45 0  0.3 0.45 0  0.35 0.45 0  0.4 0.45 0  0.45 0.45 0  0.5 0.45 0  0.55 0.45 0  0.6 0.45 0  0.65 0.45 0  0.7 0.45 0  0.75 0.45 0  0.8 0.45 0  0.85 0.45 0  0.9 0.45 0  0.95 0.45 0  1 0.45 0  0 0.5 0  0.05 0.5 0  0.1 0.5 0  0.15 0.5 0  0.2 0.5 0  0.25 0.5 0  0.3 0.5 0  0.35 0.5 0  0.4 0.5 0  0.45 0.5 0  0.5 0.5 0  0.55 0.5 0  0.6 0.5 0  0.65 0.5 0  0.7 0.5 0  0.75 0.5 0  0.8 0.5 0  0.85 0.5 0  0.9 0.5 0  0.95 0.5 0  1 0.5 0  0 0.55 0  0.05 0.55 0  0.1 0.55 0  0.15 0.55 0  0.2 0.55 0  0.25 0.55 0  0.3 0.55 0  0.35 0.55 0  0.4 0.55 0  0.45 0.55 0  0.5 0.55 0  0.55 0.55 0  0.6 0.55 0  0.65 0.55 0  0.7 0.55 0  0.75 0.55 0  0.8 0.55 0  0.85 0.55 0  0.9 0.55 0  0.95 0.55 0  1 0.55 0  0 0.6 0  0.05 0.6 0  0.1 0.6 0  0.15 0.6 0  0.2 0.6 0  0.25 0.6 0  0.3 0.6 0  0.35 0.6 0  0.4 0.6 0  0.45 0.6 0  0.5 0.6 0  0.55 0.6 0  0.6 0.6 0  0.65 0.6 0  0.7 0.6 0  0.75 0.6 0  0.8 0.6 0  0.85 0.6 0  0.9 0.6 0  0.95 0.6 0  1 0.6 0  0 0.65 0  0.05 0.65 0  0.1 0.65 0  0.15 0.65 0  0.2 0.65 0  0.25 0.65 0  0.3 0.65 0  0.35 0.65 0  0.4 0.65 0  0.45 0.65 0  0.5 0.65 0  0.55 0.65 0  0.6 0.65 0  0.65 0.65 0  0.7 0.65 0  0.75 0.65 0  0.8 0.65 0  0.85 0.65 0  0.9 0.65 0  0.95 0.65 0  1 0.65 0  0 0.7 0  0.05 0.7 0  0.1 0.7 0  0.15 0.7 0  0.2 0.7 0  0.25 0.7 0  0.3 0.7 0  0.35 0.7 0  0.4 0.7 0  0.45 0.7 0  0.5 0.7 0  0.55 0.7 0  0.6 0.7 0  0.65 0.7 0  0.7 0.7 0  0.75 0.7 0  0.8 0.7 0  0.85 0.7 0  0.9 0.7 0  0.95 0.7 0  1 0.7 0  0 0.75 0  0.05 0.75 0  0.1 0.75 0  0.15 0.75 0  0.2 0.75 0  0.25 0.75 0  0.3 0.75 0  0.35 0.75 0  0.4 0.75 0  0.45 0.75 0  0.5 0.75 0  0.55 0.75 0  0.6 0.75 0  0.65 0.75 0  0.7 0.75 0  0.75 0.75 0  0.8 0.75 0  0.85 0.75 0  0.9 0.75 0  0.95 0.75 0  1 0.75 0  0 0.8 0  0.05 0.8 0  0.1 0.8 0  0.15 0.8 0  0.2 0.8 0  0.25 0.8 0  0.3 0.8 0  0.35 0.8 0  0.4 0.8 0  0.45 0.8 0  0.5 0.8 0  0.55 0.8 0  0.6 0.8 0  0.65 0.8 0  0.7 0.8 0  0.75 0.8 0  0.8 0.8 0  0.85 0.8 0  0.9 0.8 0  0.95 0.8 0  1 0.8 0  0 0.85 0  0.05 0.85 0  0.1 0.85 0  0.15 0.85 0  0.2 0.85 0  0.25 0.85 0  0.3 0.85 0  0.35 0.85 0  0.4 0.85 0  0.45 0.85 0  0.5 0.85 0  0.55 0.85 0  0.6 0.85 0  0.65 0.85 0  0.7 0.85 0  0.75 0.85 0  0.8 0.85 0  0.85 0.85 0  0.9 0.85 0  0.95 0.85 0  1 0.85 0  0 0.9 0  0.05 0.9 0  0.1 0.9 0  0.15 0.9 0  0.2 0.9 0  0.25 0.9 0  0.3 0.9 0  0.35 0.9 0  0.4 0.9 0  0.45 0.9 0  0.5 0.9 0  0.55 0.9 0  0.6 0.9 0  0.65 0.9 0  0.7 0.9 0  0.75 0.9 0  0.8 0.9 0  0.85 0.9 0  0.9 0.9 0  0.95 0.9 0  1 0.9 0  0 0.95 0  0.05 0.95 0  0.1 0.95 0  0.15 0.95 0  0.2 0.95 0  0.25 0.95 0  0.3 0.95 0  0.35 0.95 0  0.4 0.95 0  0.45 0.95 0  0.5 0.95 0  0.55 0.95 0  0.6 0.95 0  0.65 0.95 0  0.7 0.95 0  0.75 0.95 0  0.8 0.95 0  0.85 0.95 0  0.9 0.95 0  0.95 0.95 0  1 0.95 0  0 1 0  0.05 1 0  0.1 1 0  0.15 1 0  0.2 1 0  0.25 1 0  0.3 1 0  0.35 1 0  0.4 1 0  0.45 1 0  0.5 1 0  0.55 1 0  0.6 1 0  0.65 1 0  0.7 1 0  0.75 1 0  0.8 1 0  0.85 1 0  0.9 1 0  0.95 1 0  1 1 0  </DataArray>
</Points>
<Cells>
[...]
<PointData  Vectors="f_137"> 
<DataArray  type="Float64"  Name="f_137"  NumberOfComponents="3" format="ascii">0.0000000000000000e+00 0.0000000000000000e+00 0.0000000000000000e+00  0.0000000000000000e+00 0.0000000000000000e+00 0.0000000000000000e+00  0.0000000000000000e+00 0.0000000000000000e+00 0.0000000000000000e+00  0.0000000000000000e+00 0.0000000000000000e+00 0.0000000000000000e+00  0.0000000000000000e+00 0.0000000000000000e+00 0.0000000000000000e+00  0.0000000000000000e+00 0.0000000000000000e+00 0.0000000000000000e+00  0.0000000000000000e+00 0.0000000000000000e+00 0.0000000000000000e+00  0.0000000000000000e+00 0.0000000000000000e+00 0.0000000000000000e+00  0.0000000000000000e+00 0.0000000000000000e+00 0.0000000000000000e+00  0.0000000000000000e+00 0.0000000000000000e+00 0.0000000000000000e+00  0.0000000000000000e+00 0.0000000000000000e+00 0.0000000000000000e+00  0.0000000000000000e+00 0.0000000000000000e+00 0.0000000000000000e+00  0.0000000000000000e+00 0.0000000000000000e+00 0.0000000000000000e+00  0.0000000000000000e+00 0.0000000000000000e+00 0.0000000000000000e+00  0.0000000000000000e+00 0.0000000000000000e+00 0.0000000000000000e+00  0.0000000000000000e+00 0.0000000000000000e+00 0.0000000000000000e+00  0.0000000000000000e+00 0.0000000000000000e+00 0.0000000000000000e+00  0.0000000000000000e+00 0.0000000000000000e+00 0.0000000000000000e+00  0.0000000000000000e+00 0.0000000000000000e+00 0.0000000000000000e+00  0.0000000000000000e+00 0.0000000000000000e+00 0.0000000000000000e+00  0.0000000000000000e+00 0.0000000000000000e+00 0.0000000000000000e+00  0.0000000000000000e+00 0.0000000000000000e+00 0.0000000000000000e+00  -7.3301591329459766e-04 7.2434560178463942e-04 0.0000000000000000e+00  -1.7158496170987230e-03 6.9351249958827632e-04 0.0000000000000000e+00  -2.6491075613855105e-03 6.5147862255055867e-04 0.0000000000000000e+00  -3.5129876292672264e-03 5.9250448591893258e-04 0.0000000000000000e+00  -4.2852827712966182e-03 5.1843442167233118e-04 0.0000000000000000e+00  -4.9463014051100507e-03 4.3138706421620064e-04 0.0000000000000000e+00  -5.4797253799487534e-03 3.3365366734629536e-04 0.0000000000000000e+00  -5.8725126104123464e-03 2.2763666582079824e-04 0.0000000000000000e+00  -6.1150167709209495e-03 1.1580720736685300e-04 0.0000000000000000e+00  -6.2010440326804627e-03 6.8325342569242584e-07 0.0000000000000000e+00  -6.1278955227479972e-03 -1.1515960057403515e-04 0.0000000000000000e+00  -5.8964384399475163e-03 -2.2906217024018589e-04 0.0000000000000000e+00  -5.5112159040881783e-03 -3.3826166787094065e-04 0.0000000000000000e+00  -4.9805756453586885e-03 -4.3989737859328494e-04 0.0000000000000000e+00  -4.3167605679416375e-03 -5.3104434124713650e-04 0.0000000000000000e+00  -3.5359042815245527e-03 -6.0871934442120789e-04 0.0000000000000000e+00  -2.6581329503946515e-03 -6.7015945685065326e-04 0.0000000000000000e+00  -1.7086722845414239e-03 -7.1582017349150408e-04 0.0000000000000000e+00  -7.0508609689853223e-04 -7.0236625143126682e-04 0.0000000000000000e+00  0.0000000000000000e+00 0.0000000000000000e+00 0.0000000000000000e+00  0.0000000000000000e+00 0.0000000000000000e+00 0.0000000000000000e+00  -7.5027041917503814e-04 1.7354588567850375e-03 0.0000000000000000e+00  -1.7724565428566005e-03 1.6807763035626051e-03 0.0000000000000000e+00  -2.7504340931173844e-03 1.5821217844305061e-03 0.0000000000000000e+00  -3.6566364499067711e-03 1.4408570152795951e-03 0.0000000000000000e+00  -4.4669814984426822e-03 1.2627670856849851e-03 0.0000000000000000e+00  -5.1612682432376107e-03 1.0532420019900392e-03 0.0000000000000000e+00  -5.7225455465420780e-03 8.1784376339631996e-04 0.0000000000000000e+00  -6.1373114984122614e-03 5.6240527236540896e-04 0.0000000000000000e+00  -6.3955636807370656e-03 2.9287342930502553e-04 0.0000000000000000e+00  -6.4907920985322401e-03 1.5263484594413550e-05 0.0000000000000000e+00  -6.4199856972969524e-03 -2.6430382020427057e-04 0.0000000000000000e+00  -6.1836997117320587e-03 -5.3952243560483233e-04 0.0000000000000000e+00  -5.7861994098755238e-03 -8.0382962603320492e-04 0.0000000000000000e+00  -5.2356601437905182e-03 -1.0503949870723081e-03 0.0000000000000000e+00  -4.5443730539211323e-03 -1.2722018310461502e-03 0.0000000000000000e+00  -3.7288716181937314e-03 -1.4621582917463062e-03 0.0000000000000000e+00  -2.8096109317744685e-03 -1.6132698654679344e-03 0.0000000000000000e+00  -1.8134701437527796e-03 -1.7215984713261745e-03 0.0000000000000000e+00  -7.6619212469674529e-04 -1.7343539548742074e-03 0.0000000000000000e+00  0.0000000000000000e+00 0.0000000000000000e+00 0.0000000000000000e+00  0.0000000000000000e+00 0.0000000000000000e+00 0.0000000000000000e+00  -7.9500667966049576e-04 2.7878400040540776e-03 0.0000000000000000e+00  -1.8775631290775894e-03 2.7135533640391179e-03 0.0000000000000000e+00  -2.9108863454680948e-03 2.5521653468307992e-03 0.0000000000000000e+00  -3.8679586559468579e-03 2.3238720715568163e-03 0.0000000000000000e+00  -4.7227240153941922e-03 2.0361555214797981e-03 0.0000000000000000e+00  -5.4543141187938324e-03 1.6980735555494123e-03 0.0000000000000000e+00  -6.0453455146856645e-03 1.3187758649728584e-03 0.0000000000000000e+00  -6.4821474048225650e-03 9.0767036402626406e-04 0.0000000000000000e+00  -6.7546676640132747e-03 4.7422148756682717e-04 0.0000000000000000e+00  -6.8563318195726496e-03 2.7899233911135153e-05 0.0000000000000000e+00  -6.7839587508313846e-03 -4.2171822651039135e-04 0.0000000000000000e+00  -6.5377993083969568e-03 -8.6475790355435109e-04 0.0000000000000000e+00  -6.1217262029545543e-03 -1.2908726584560689e-03 0.0000000000000000e+00  -5.5435547625863222e-03 -1.6891655133373649e-03 0.0000000000000000e+00  -4.8154242464558319e-03 -2.0482861545762917e-03 0.0000000000000000e+00  -3.9541004741572737e-03 -2.3566146099400034e-03 0.0000000000000000e+00  -2.9808262810222578e-03 -2.6025220407837868e-03 0.0000000000000000e+00  -1.9245383477653906e-03 -2.7790030755910503e-03 0.0000000000000000e+00  -8.1010040219200074e-04 -2.8107557387525598e-03 0.0000000000000000e+00  0.0000000000000000e+00 0.0000000000000000e+00 0.0000000000000000e+00  0.0000000000000000e+00 0.0000000000000000e+00 0.0000000000000000e+00  -8.6135398977876104e-04 3.9149727432810210e-03 0.0000000000000000e+00  -2.0318513710873452e-03 3.8192129700642791e-03 0.0000000000000000e+00  -3.1486945369259452e-03 3.5904749092260557e-03 0.0000000000000000e+00  -4.1811352923703336e-03 3.2677479863376145e-03 0.0000000000000000e+00  -5.1015660997664868e-03 2.8618738120837549e-03 0.0000000000000000e+00  -5.8880020272700714e-03 2.3859673709786260e-03 0.0000000000000000e+00  -6.5226000283141331e-03 1.8532004404345959e-03 0.0000000000000000e+00  -6.9916313209360849e-03 1.2767952261375421e-03 0.0000000000000000e+00  -7.2851443736769361e-03 6.6978234996287135e-04 0.0000000000000000e+00  -7.3965938122959440e-03 4.4978901674274350e-05 0.0000000000000000e+00  -7.3225927249683728e-03 -5.8477553710819413e-04 0.0000000000000000e+00  -7.0628922124479588e-03 -1.2062325577339330e-03 0.0000000000000000e+00  -6.6206380047463508e-03 -1.8053455604768991e-03 0.0000000000000000e+00  -6.0028855683371346e-03 -2.3670360998711919e-03 0.0000000000000000e+00  -5.2212793475727021e-03 -2.8752435216801704e-03 0.0000000000000000e+00  -4.2927020101272556e-03 -3.3131869891216241e-03 0.0000000000000000e+00  -3.2394101537903588e-03 -3.6638010563432334e-03 0.0000000000000000e+00  -2.0929353129078205e-03 -3.9158493405770916e-03 0.0000000000000000e+00  -8.8020072117667820e-04 -3.9691900921455777e-03 0.0000000000000000e+00  0.0000000000000000e+00 0.0000000000000000e+00 0.0000000000000000e+00  0.0000000000000000e+00 0.0000000000000000e+00 0.0000000000000000e+00  -9.5181181056459840e-04 5.1477736601357686e-03 0.0000000000000000e+00  -2.2423081511239039e-03 5.0264205974284481e-03 0.0000000000000000e+00  -3.4721156880304382e-03 4.7219715762621475e-03 0.0000000000000000e+00  -4.6060237961553898e-03 4.2940248124787401e-03 0.0000000000000000e+00  -5.6140355316651649e-03 3.7575282088858101e-03 0.0000000000000000e+00  -6.4729452455696054e-03 3.1306129386158691e-03 0.0000000000000000e+00  -7.1646242639203227e-03 2.4311029805734897e-03 0.0000000000000000e+00  -7.6756593558407211e-03 1.6763763470402948e-03 0.0000000000000000e+00  -7.9965943455002648e-03 8.8304128682426648e-04 0.0000000000000000e+00  -8.1211797384203536e-03 6.7005316079878010e-05 0.0000000000000000e+00  -8.0458520929095993e-03 -7.5604260741386688e-04 0.0000000000000000e+00  -7.7696023598074855e-03 -1.5698977418941073e-03 0.0000000000000000e+00  -7.2943171639325349e-03 -2.3570740375821343e-03 0.0000000000000000e+00  -6.6255855767452789e-03 -3.0982537579940499e-03 0.0000000000000000e+00  -5.7738546818414645e-03 -3.7721736767458666e-03 0.0000000000000000e+00  -4.7556639128826846e-03 -4.3559256422689065e-03 0.0000000000000000e+00  -3.5942960054326832e-03 -4.8256207196007862e-03 0.0000000000000000e+00  -2.3247990185697172e-03 -5.1644001410699530e-03 0.0000000000000000e+00  -9.7732990795138083e-04 -5.2433720938098085e-03 0.0000000000000000e+00  0.0000000000000000e+00 0.0000000000000000e+00 0.0000000000000000e+00  0.0000000000000000e+00 0.0000000000000000e+00 0.0000000000000000e+00  -1.0700235395175281e-03 6.5209455974504010e-03 0.0000000000000000e+00  -2.5173085192845366e-03 6.3685175024909887e-03 0.0000000000000000e+00  -3.8934746184426205e-03 5.9765161701796970e-03 0.0000000000000000e+00  -5.1574983668174392e-03 5.4280132019234152e-03 0.0000000000000000e+00  -6.2763907417379581e-03 4.7435969213368073e-03 0.0000000000000000e+00  -7.2257675510946041e-03 3.9478030287966020e-03 0.0000000000000000e+00  -7.9877730156539557e-03 3.0640911774174155e-03 0.0000000000000000e+00  -8.5501078269797238e-03 2.1144412138187890e-03 0.0000000000000000e+00  -8.9045980142833971e-03 1.1189586109201519e-03 0.0000000000000000e+00  -9.0458383745230398e-03 9.6129285093915097e-05 0.0000000000000000e+00  -8.9702357423463892e-03 -9.3628046588615187e-04 0.0000000000000000e+00  -8.6756794086736751e-03 -1.9599191485542376e-03 0.0000000000000000e+00  -8.1619722008401761e-03 -2.9544541625692944e-03 0.0000000000000000e+00  -7.4320465209716793e-03 -3.8964449073722492e-03 0.0000000000000000e+00  -6.4938443288081391e-03 -4.7588465496923339e-03 0.0000000000000000e+00  -5.3625064783560843e-03 -5.5112362392008060e-03 0.0000000000000000e+00  -4.0619558015177583e-03 -6.1207760862978322e-03 0.0000000000000000e+00  -2.6316142044869061e-03 -6.5626806266794726e-03 0.0000000000000000e+00  -1.1063099474543986e-03 -6.6733167253758023e-03 0.0000000000000000e+00  0.0000000000000000e+00 0.0000000000000000e+00 0.0000000000000000e+00  0.0000000000000000e+00 0.0000000000000000e+00 0.0000000000000000e+00  -1.2212183961435620e-03 8.0752800898221816e-03 0.0000000000000000e+00  -2.8684475048988706e-03 7.8837352022897607e-03 0.0000000000000000e+00  -4.4293449330478907e-03 7.3872824360011729e-03 0.0000000000000000e+00  -5.8551976283741734e-03 6.6967927775359705e-03 0.0000000000000000e+00  -7.1094153631710002e-03 5.8408984136580746e-03 0.0000000000000000e+00  -8.1669118514355963e-03 4.8526941507554561e-03 0.0000000000000000e+00  -9.0112889820255695e-03 3.7627005198715415e-03 0.0000000000000000e+00  -9.6328590801580041e-03 2.5980591320052962e-03 0.0000000000000000e+00  -1.0026138266338495e-02 1.3820967484060611e-03 0.0000000000000000e+00  -1.0187560922041330e-02 1.3493407164095683e-04 0.0000000000000000e+00  -1.0113856541122032e-02 -1.1249432990623170e-03 0.0000000000000000e+00  -9.8013868233878688e-03 -2.3784959676730714e-03 0.0000000000000000e+00  -9.2466374700308860e-03 -3.6037381859772939e-03 0.0000000000000000e+00  -8.4479597355422778e-03 -4.7736275375939745e-03 0.0000000000000000e+00  -7.4084954535647415e-03 -5.8547895977532792e-03 0.0000000000000000e+00  -6.1398818916466912e-03 -6.8073941929780784e-03 0.0000000000000000e+00  -4.6654856014510127e-03 -7.5864260647593700e-03 0.0000000000000000e+00  -3.0298217442538966e-03 -8.1553924542863282e-03 0.0000000000000000e+00  -1.2743535530008435e-03 -8.3073927646647172e-03 0.0000000000000000e+00  0.0000000000000000e+00 0.0000000000000000e+00 0.0000000000000000e+00  0.0000000000000000e+00 0.0000000000000000e+00 0.0000000000000000e+00  -1.4130007830696323e-03 9.8598724495792944e-03 0.0000000000000000e+00  -3.3124651597485496e-03 9.6172060691639537e-03 0.0000000000000000e+00  -5.1031623097279504e-03 8.9920197257764810e-03 0.0000000000000000e+00  -6.7261187994721878e-03 8.1294713820804498e-03 0.0000000000000000e+00  -8.1406979359294768e-03 7.0700936731523303e-03 0.0000000000000000e+00  -9.3223290439965033e-03 5.8588308311222637e-03 0.0000000000000000e+00  -1.0258326469187194e-02 4.5353010531879057e-03 0.0000000000000000e+00  -1.0944218078682207e-02 3.1324383609612409e-03 0.0000000000000000e+00  -1.1379566618360544e-02 1.6761442338566785e-03 0.0000000000000000e+00  -1.1564317986345230e-02 1.8654037191413202e-04 0.0000000000000000e+00  -1.1496218948873080e-02 -1.3194268836474992e-03 0.0000000000000000e+00  -1.1169628332670130e-02 -2.8245055617459537e-03 0.0000000000000000e+00  -1.0575966788460435e-02 -4.3072648003679610e-03 0.0000000000000000e+00  -9.7060334489732520e-03 -5.7384002167231050e-03 0.0000000000000000e+00  -8.5543206895236524e-03 -7.0779840068153528e-03 0.0000000000000000e+00  -7.1250312741440291e-03 -8.2743615191026125e-03 0.0000000000000000e+00  -5.4381943485985072e-03 -9.2654982665035975e-03 0.0000000000000000e+00  -3.5436503509359350e-03 -9.9969703641016334e-03 0.0000000000000000e+00  -1.4921168661421790e-03 -1.0205940060612427e-02 0.0000000000000000e+00  0.0000000000000000e+00 0.0000000000000000e+00 0.0000000000000000e+00  0.0000000000000000e+00 0.0000000000000000e+00 0.0000000000000000e+00  -1.6566575376719675e-03 1.1935963601229203e-02 0.0000000000000000e+00  -3.8738663957984037e-03 1.1623785462888671e-02 0.0000000000000000e+00  -5.9485171501960929e-03 1.0834332178289803e-02 0.0000000000000000e+00  -7.8077941659232299e-03 9.7569323460653234e-03 0.0000000000000000e+00  -9.4070334634160195e-03 8.4502625311293836e-03 0.0000000000000000e+00  -1.0724796142699718e-02 6.9761162254164755e-03 0.0000000000000000e+00  -1.1756153270199606e-02 5.3860136050218844e-03 0.0000000000000000e+00  -1.2506169138298733e-02 3.7192364312968297e-03 0.0000000000000000e+00  -1.2983190433619117e-02 2.0029353463904684e-03 0.0000000000000000e+00  -1.3193306890428431e-02 2.5454176636934998e-04 0.0000000000000000e+00  -1.3136508168010007e-02 -1.5140986892456184e-03 0.0000000000000000e+00  -1.2804737383798939e-02 -3.2914886952138574e-03 0.0000000000000000e+00  -1.2182061304072478e-02 -5.0605763280486028e-03 0.0000000000000000e+00  -1.1247394787778900e-02 -6.7926717820876656e-03 0.0000000000000000e+00  -9.9803913072682854e-03 -8.4420658021316843e-03 0.0000000000000000e+00  -8.3707541519771889e-03 -9.9425901110352048e-03 0.0000000000000000e+00  -6.4292596030076548e-03 -1.1208093018750313e-02 0.0000000000000000e+00  -4.2098613479716000e-03 -1.2155856439396243e-02 0.0000000000000000e+00  -1.7759211452489563e-03 -1.2447420921749551e-02 0.0000000000000000e+00  0.0000000000000000e+00 0.0000000000000000e+00 0.0000000000000000e+00  0.0000000000000000e+00 0.0000000000000000e+00 0.0000000000000000e+00  -1.9693934707880169e-03 1.4382908594560611e-02 0.0000000000000000e+00  -4.5894024280870600e-03 1.3972186339938712e-02 0.0000000000000000e+00  -7.0145295581332612e-03 1.2965142038051042e-02 0.0000000000000000e+00  -9.1531413278736779e-03 1.1610772633697438e-02 0.0000000000000000e+00  -1.0957776799064897e-02 9.9961003481046501e-03 0.0000000000000000e+00  -1.2415395704514024e-02 8.2072612098390250e-03 0.0000000000000000e+00  -1.3535870582595848e-02 6.3112809715743026e-03 0.0000000000000000e+00  -1.4340704949730224e-02 4.3538525919459706e-03 0.0000000000000000e+00  -1.4852645791810306e-02 2.3608248808351900e-03 0.0000000000000000e+00  -1.5087792101449487e-02 3.4269144242307507e-04 0.0000000000000000e+00  -1.5050348680927665e-02 -1.6991107248243858e-03 0.0000000000000000e+00  -1.4729739980240819e-02 -3.7648164815345690e-03 0.0000000000000000e+00  -1.4100056551579658e-02 -5.8479728553729069e-03 0.0000000000000000e+00  -1.3122529644447586e-02 -7.9260921704254056e-03 0.0000000000000000e+00  -1.1752539392559803e-02 -9.9508927016134282e-03 0.0000000000000000e+00  -9.9529721984325387e-03 -1.1839771915525817e-02 0.0000000000000000e+00  -7.7131730306933327e-03 -1.3472579452361511e-02 0.0000000000000000e+00  -5.0861086341533086e-03 -1.4720941241640662e-02 0.0000000000000000e+00  -2.1516552534370163e-03 -1.5138538556387094e-02 0.0000000000000000e+00  0.0000000000000000e+00 0.0000000000000000e+00 0.0000000000000000e+00  0.0000000000000000e+00 0.0000000000000000e+00 0.0000000000000000e+00  -2.3783458247852774e-03 1.7307806791066156e-02 0.0000000000000000e+00  -5.5158961905278289e-03 1.6751228721583737e-02 0.0000000000000000e+00  -8.3748496362073925e-03 1.5444157766415251e-02 0.0000000000000000e+00  -1.0838091948818768e-02 1.3720584883401193e-02 0.0000000000000000e+00  -1.2859609655856006e-02 1.1712683047761312e-02 0.0000000000000000e+00  -1.4445140071178329e-02 9.5418301434127151e-03 0.0000000000000000e+00  -1.5631405990244956e-02 7.2945125383669096e-03 0.0000000000000000e+00  -1.6466955566783140e-02 5.0213743370547950e-03 0.0000000000000000e+00  -1.6996826912539127e-02 2.7422168281828673e-03 0.0000000000000000e+00  -1.7252302437369162e-02 4.5416461929820626e-04 0.0000000000000000e+00  -1.7244662480064055e-02 -1.8591551462042155e-03 0.0000000000000000e+00  -1.6961458207425176e-02 -4.2180410043786299e-03 0.0000000000000000e+00  -1.6364578878526687e-02 -6.6360631041464070e-03 0.0000000000000000e+00  -1.5390906326654710e-02 -9.1069562037252513e-03 0.0000000000000000e+00  -1.3958412951556655e-02 -1.1588378511863007e-02 0.0000000000000000e+00  -1.1982407880420555e-02 -1.3983091243468903e-02 0.0000000000000000e+00  -9.4061677261452741e-03 -1.6124914158008478e-02 0.0000000000000000e+00  -6.2666001835099015e-03 -1.7811212795069174e-02 0.0000000000000000e+00  -2.6626139000566163e-03 -1.8432214819117922e-02 0.0000000000000000e+00  0.0000000000000000e+00 0.0000000000000000e+00 0.0000000000000000e+00  0.0000000000000000e+00 0.0000000000000000e+00 0.0000000000000000e+00  -2.9281546398297674e-03 2.0861698743433379e-02 0.0000000000000000e+00  -6.7443260868324294e-03 2.0079473586519684e-02 0.0000000000000000e+00  -1.0143018388207014e-02 1.8340602217152738e-02 0.0000000000000000e+00  -1.2973518915205045e-02 1.6107738607476312e-02 0.0000000000000000e+00  -1.5202927948085088e-02 1.3585883070498217e-02 0.0000000000000000e+00  -1.6876131729223903e-02 1.0946537832527544e-02 0.0000000000000000e+00  -1.8076954823125924e-02 8.2981390679551948e-03 0.0000000000000000e+00  -1.8896447622534993e-02 5.6909545444385062e-03 0.0000000000000000e+00  -1.9411940251699667e-02 3.1301403783240362e-03 0.0000000000000000e+00  -1.9675853220691528e-02 5.9016137981616394e-04 0.0000000000000000e+00  -1.9710110959414169e-02 -1.9725962028478762e-03 0.0000000000000000e+00  -1.9502404144735551e-02 -4.6089207791038794e-03 0.0000000000000000e+00  -1.9002238857928577e-02 -7.3652995474358888e-03 0.0000000000000000e+00  -1.8116995827433729e-02 -1.0268300750128577e-02 0.0000000000000000e+00  -1.6711646331263257e-02 -1.3299885679539436e-02 0.0000000000000000e+00  -1.4621354926908347e-02 -1.6361191934742010e-02 0.0000000000000000e+00  -1.1695669264065411e-02 -1.9231979545637923e-02 0.0000000000000000e+00  -7.9139889406691574e-03 -2.1591571887487514e-02 0.0000000000000000e+00  -3.3866333721960188e-03 -2.2563175638043127e-02 0.0000000000000000e+00  0.0000000000000000e+00 0.0000000000000000e+00 0.0000000000000000e+00  0.0000000000000000e+00 0.0000000000000000e+00 0.0000000000000000e+00  -3.6956895316429205e-03 2.5269142755597003e-02 0.0000000000000000e+00  -8.4262275106447865e-03 2.4119816727373171e-02 0.0000000000000000e+00  -1.2499288142273312e-02 2.1730976468674657e-02 0.0000000000000000e+00  -1.5723570491902473e-02 1.8771707159991713e-02 0.0000000000000000e+00  -1.8109331630901653e-02 1.5564962265989437e-02 0.0000000000000000e+00  -1.9780546881718927