<?xml version="1.0"?>
<VTKFile type="UnstructuredGrid"  version="0.1"  >
<UnstructuredGrid>
<Piece  NumberOfPoints="441" NumberOfCells="800">
<Points>
<DataArray  type="Float64"  NumberOfComponents="3"  format="ascii">0 0 0  0.05 0 0  0.1 0 0  0.15 0 0  0.2 0 0  0.25 0 0  0.3 0 0  0.35 0 0  0.4 0 0  0.45 0 0  0.5 0 0  0.55 0 0  0.6 0 0  0.65 0 0  0.7 0 0  0.75 0 0  0.8 0 0  0.85 0 0  0.9 0 0  0.95 0 0  1 0 0  0 0.05 0  0.05 0.05 0  0.1 0.05 0  0.15 0.05 0  0.2 0.05 0  0.25 0.05 0  0.3 0.05 0  0.35 0.05 0  0.4 0.05 0  0.45 0.05 0  0.5 0.05 0  0.55 0.05 0  0.6 0.05 0  0.65 0.05 0  0.7 0.05 0  0.75 0.05 0  0.8 0.05 0  0.85 0.05 0  0.9 0.05 0  0.95 0.05 0  1 0.05 0  0 0.1 0  0.05 0.1 0  0.1 0.1 0  0.15 0.1 0  0.2 0.1 0  0.25 0.1 0  0.3 0.1 0  0.35 0.1 0  0.4 0.1 0  0.45 0.1 0  0.5 0.1 0  0.55 0.1 0  0.6 0.1 0  0.65 0.1 0  0.7 0.1 0  0.75 0.1 0  0.8 0.1 0  0.85 0.1 0  0.9 0.1 0  0.95 0.1 0  1 0.1 0  0 0.15 0  0.05 0.15 0  0.1 0.15 0  0.15 0.15 0  0.2 0.15 0  0.25 0.15 0  0.3 0.15 0  0.35 0.15 0  0.4 0.15 0  0.45 0.15 0  0.5 0.15 0  0.55 0.15 0  0.6 0.15 0  0.65 0.15 0  0.7 0.15 0  0.75 0.15 0  0.8 0.15 0  0.85 0.15 0  0.9 0.15 0  0.95 0.15 0  1 0.15 0  0 0.2 0  0.05 0.2 0  0.1 0.2 0  0.15 0.2 0  0.2 0.2 0  0.25 0.2 0  0.3 0.2 0  0.35 0.2 0  0.4 0.2 0  0.45 0.2 0  0.5 0.2 0  0.55 0.2 0  0.6 0.2 0  0.65 0.2 0  0.7 0.2 0  0.75 0.2 0  0.8 0.2 0  0.85 0.2 0  0.9 0.2 0  0.95 0.2 0  1 0.2 0  0 0.25 0  0.05 0.25 0  0.1 0.25 0  0.15 0.25 0  0.2 0.25 0  0.25 0.25 0  0.3 0.25 0  0.35 0.25 0  0.4 0.25 0  0.45 0.25 0  0.5 0.25 0  0.55 0.25 0  0.6 0.25 0  0.65 0.25 0  0.7 0.25 0  0.75 0.25 0  0.8 0.25 0  0.85 0.25 0  0.9 0.25 0  0.95 0.25 0  1 0.25 0  0 0.3 0  0.05 0.3 0  0.1 0.3 0  0.15 0.3 0  0.2 0.3 0  0.25 0.3 0  0.3 0.3 0  0.35 0.3 0  0.4 0.3 0  0.45 0.3 0  0.5 0.3 0  0.55 0.3 0  0.6 0.3 0  0.65 0.3 0  0.7 0.3 0  0.75 0.3 0  0.8 0.3 0  0.85 0.3 0  0.9 0.3 0  0.95 0.3 0  1 0.3 0  0 0.35 0  0.05 0.35 0  0.1 0.35 0  0.15 0.35 0  0.2 0.35 0  0.25 0.35 0  0.3 0.35 0  0.35 0.35 0  0.4 0.35 0  0.45 0.35 0  0.5 0.35 0  0.55 0.35 0  0.6 0.35 0  0.65 0.35 0  0.7 0.35 0  0.75 0.35 0  0.8 0.35 0  0.85 0.35 0  0.9 0.35 0  0.95 0.35 0  1 0.35 0  0 0.4 0  0.05 0.4 0  0.1 0.4 0  0.15 0.4 0  0.2 0.4 0  0.25 0.4 0  0.3 0.4 0  0.35 0.4 0  0.4 0.4 0  0.45 0.4 0  0.5 0.4 0  0.55 0.4 0  0.6 0.4 0  0.65 0.4 0  0.7 0.4 0  0.75 0.4 0  0.8 0.4 0  0.85 0.4 0  0.9 0.4 0  0.95 0.4 0  1 0.4 0  0 0.45 0  0.05 0.45 0  0.1 0.45 0  0.15 0.45 0  0.2 0.45 0  0.25 0.45 0  0.3 0.45 0  0.35 0.45 0  0.4 0.45 0  0.45 0.45 0  0.5 0.45 0  0.55 0.45 0  0.6 0.45 0  0.65 0.45 0  0.7 0.45 0  0.75 0.45 0  0.8 0.45 0  0.85 0.45 0  0.9 0.45 0  0.95 0.45 0  1 0.45 0  0 0.5 0  0.05 0.5 0  0.1 0.5 0  0.15 0.5 0  0.2 0.5 0  0.25 0.5 0  0.3 0.5 0  0.35 0.5 0  0.4 0.5 0  0.45 0.5 0  0.5 0.5 0  0.55 0.5 0  0.6 0.5 0  0.65 0.5 0  0.7 0.5 0  0.75 0.5 0  0.8 0.5 0  0.85 0.5 0  0.9 0.5 0  0.95 0.5 0  1 0.5 0  0 0.55 0  0.05 0.55 0  0.1 0.55 0  0.15 0.55 0  0.2 0.55 0  0.25 0.55 0  0.3 0.55 0  0.35 0.55 0  0.4 0.55 0  0.45 0.55 0  0.5 0.55 0  0.55 0.55 0  0.6 0.55 0  0.65 0.55 0  0.7 0.55 0  0.75 0.55 0  0.8 0.55 0  0.85 0.55 0  0.9 0.55 0  0.95 0.55 0  1 0.55 0  0 0.6 0  0.05 0.6 0  0.1 0.6 0  0.15 0.6 0  0.2 0.6 0  0.25 0.6 0  0.3 0.6 0  0.35 0.6 0  0.4 0.6 0  0.45 0.6 0  0.5 0.6 0  0.55 0.6 0  0.6 0.6 0  0.65 0.6 0  0.7 0.6 0  0.75 0.6 0  0.8 0.6 0  0.85 0.6 0  0.9 0.6 0  0.95 0.6 0  1 0.6 0  0 0.65 0  0.05 0.65 0  0.1 0.65 0  0.15 0.65 0  0.2 0.65 0  0.25 0.65 0  0.3 0.65 0  0.35 0.65 0  0.4 0.65 0  0.45 0.65 0  0.5 0.65 0  0.55 0.65 0  0.6 0.65 0  0.65 0.65 0  0.7 0.65 0  0.75 0.65 0  0.8 0.65 0  0.85 0.65 0  0.9 0.65 0  0.95 0.65 0  1 0.65 0  0 0.7 0  0.05 0.7 0  0.1 0.7 0  0.15 0.7 0  0.2 0.7 0  0.25 0.7 0  0.3 0.7 0  0.35 0.7 0  0.4 0.7 0  0.45 0.7 0  0.5 0.7 0  0.55 0.7 0  0.6 0.7 0  0.65 0.7 0  0.7 0.7 0  0.75 0.7 0  0.8 0.7 0  0.85 0.7 0  0.9 0.7 0  0.95 0.7 0  1 0.7 0  0 0.75 0  0.05 0.75 0  0.1 0.75 0  0.15 0.75 0  0.2 0.75 0  0.25 0.75 0  0.3 0.75 0  0.35 0.75 0  0.4 0.75 0  0.45 0.75 0  0.5 0.75 0  0.55 0.75 0  0.6 0.75 0  0.65 0.75 0  0.7 0.75 0  0.75 0.75 0  0.8 0.75 0  0.85 0.75 0  0.9 0.75 0  0.95 0.75 0  1 0.75 0  0 0.8 0  0.05 0.8 0  0.1 0.8 0  0.15 0.8 0  0.2 0.8 0  0.25 0.8 0  0.3 0.8 0  0.35 0.8 0  0.4 0.8 0  0.45 0.8 0  0.5 0.8 0  0.55 0.8 0  0.6 0.8 0  0.65 0.8 0  0.7 0.8 0  0.75 0.8 0  0.8 0.8 0  0.85 0.8 0  0.9 0.8 0  0.95 0.8 0  1 0.8 0  0 0.85 0  0.05 0.85 0  0.1 0.85 0  0.15 0.85 0  0.2 0.85 0  0.25 0.85 0  0.3 0.85 0  0.35 0.85 0  0.4 0.85 0  0.45 0.85 0  0.5 0.85 0  0.55 0.85 0  0.6 0.85 0  0.65 0.85 0  0.7 0.85 0  0.75 0.85 0  0.8 0.85 0  0.85 0.85 0  0.9 0.85 0  0.95 0.85 0  1 0.85 0  0 0.9 0  0.05 0.9 0  0.1 0.9 0  0.15 0.9 0  0.2 0.9 0  0.25 0.9 0  0.3 0.9 0  0.35 0.9 0  0.4 0.9 0  0.45 0.9 0  0.5 0.9 0  0.55 0.9 0  0.6 0.9 0  0.65 0.9 0  0.7 0.9 0  0.75 0.9 0  0.8 0.9 0  0.85 0.9 0  0.9 0.9 0  0.95 0.9 0  1 0.9 0  0 0.95 0  0.05 0.95 0  0.1 0.95 0  0.15 0.95 0  0.2 0.95 0  0.25 0.95 0  0.3 0.95 0  0.35 0.95 0  0.4 0.95 0  0.45 0.95 0  0.5 0.95 0  0.55 0.95 0  0.6 0.95 0  0.65 0.95 0  0.7 0.95 0  0.75 0.95 0  0.8 0.95 0  0.85 0.95 0  0.9 0.95 0  0.95 0.95 0  1 0.95 0  0 1 0  0.05 1 0  0.1 1 0  0.15 1 0  0.2 1 0  0.25 1 0  0.3 1 0  0.35 1 0  0.4 1 0  0.45 1 0  0.5 1 0  0.55 1 0  0.6 1 0  0.65 1 0  0.7 1 0  0.75 1 0  0.8 1 0  0.85 1 0  0.9 1 0  0.95 1 0  1 1 0  </DataArray>
</Points>
<Cells>
[...]
<PointData  Vectors="f_137"> 
<DataArray  type="Float64"  Name="f_137"  NumberOfComponents="3" format="ascii">0.0000000000000000e+00 0.0000000000000000e+00 0.0000000000000000e+00  0.0000000000000000e+00 0.0000000000000000e+00 0.0000000000000000e+00  0.0000000000000000e+00 0.0000000000000000e+00 0.0000000000000000e+00  0.0000000000000000e+00 0.0000000000000000e+00 0.0000000000000000e+00  0.0000000000000000e+00 0.0000000000000000e+00 0.0000000000000000e+00  0.0000000000000000e+00 0.0000000000000000e+00 0.0000000000000000e+00  0.0000000000000000e+00 0.0000000000000000e+00 0.0000000000000000e+00  0.0000000000000000e+00 0.0000000000000000e+00 0.0000000000000000e+00  0.0000000000000000e+00 0.0000000000000000e+00 0.0000000000000000e+00  0.0000000000000000e+00 0.0000000000000000e+00 0.0000000000000000e+00  0.0000000000000000e+00 0.0000000000000000e+00 0.0000000000000000e+00  0.0000000000000000e+00 0.0000000000000000e+00 0.0000000000000000e+00  0.0000000000000000e+00 0.0000000000000000e+00 0.0000000000000000e+00  0.0000000000000000e+00 0.0000000000000000e+00 0.0000000000000000e+00  0.0000000000000000e+00 0.0000000000000000e+00 0.0000000000000000e+00  0.0000000000000000e+00 0.0000000000000000e+00 0.0000000000000000e+00  0.0000000000000000e+00 0.0000000000000000e+00 0.0000000000000000e+00  0.0000000000000000e+00 0.0000000000000000e+00 0.0000000000000000e+00  0.0000000000000000e+00 0.0000000000000000e+00 0.0000000000000000e+00  0.0000000000000000e+00 0.0000000000000000e+00 0.0000000000000000e+00  0.0000000000000000e+00 0.0000000000000000e+00 0.0000000000000000e+00  0.0000000000000000e+00 0.0000000000000000e+00 0.0000000000000000e+00  -7.4732705880402306e-04 7.3866398425931877e-04 0.0000000000000000e+00  -1.7663778582513426e-03 7.1064152967508767e-04 0.0000000000000000e+00  -2.7346941680245229e-03 6.6800619286637030e-04 0.0000000000000000e+00  -3.6314922038202047e-03 6.0797785560569859e-04 0.0000000000000000e+00  -4.4337049922176259e-03 5.3245825694941788e-04 0.0000000000000000e+00  -5.1208365967275061e-03 4.4358152324121134e-04 0.0000000000000000e+00  -5.6758821073019175e-03 3.4366695549527569e-04 0.0000000000000000e+00  -6.0851986729174535e-03 2.3515330863833496e-04 0.0000000000000000e+00  -6.3386455846472459e-03 1.2055684740028411e-04 0.0000000000000000e+00  -6.4296515586892422e-03 2.4500957105123325e-06 0.0000000000000000e+00  -6.3552688609058387e-03 -1.1652556146731941e-04 0.0000000000000000e+00  -6.1162590461021939e-03 -2.3363200685143514e-04 0.0000000000000000e+00  -5.7172201084445670e-03 -3.4601314231896287e-04 0.0000000000000000e+00  -5.1667340051271046e-03 -4.5070221270817896e-04 0.0000000000000000e+00  -4.4774722204739886e-03 -5.4466465208199662e-04 0.0000000000000000e+00  -3.6661933062640470e-03 -6.2480295619504018e-04 0.0000000000000000e+00  -2.7538539744470522e-03 -6.8804509039077438e-04 0.0000000000000000e+00  -1.7669985103999912e-03 -7.3418016811869168e-04 0.0000000000000000e+00  -7.2390786172939561e-04 -7.2119161512026932e-04 0.0000000000000000e+00  0.0000000000000000e+00 0.0000000000000000e+00 0.0000000000000000e+00  0.0000000000000000e+00 0.0000000000000000e+00 0.0000000000000000e+00  -7.6784551629341239e-04 1.7865135872311344e-03 0.0000000000000000e+00  -1.8286129930458247e-03 1.7352897554246134e-03 0.0000000000000000e+00  -2.8437466698903098e-03 1.6349131668400275e-03 0.0000000000000000e+00  -3.7849489195883276e-03 1.4897260808330380e-03 0.0000000000000000e+00  -4.6270334665441297e-03 1.3065054315188360e-03 0.0000000000000000e+00  -5.3489944490940026e-03 1.0907021060756997e-03 0.0000000000000000e+00  -5.9331560354679352e-03 8.4799629087583465e-04 0.0000000000000000e+00  -6.3653897060727818e-03 5.8436409266251436e-04 0.0000000000000000e+00  -6.6351767240714751e-03 3.0591329599774237e-04 0.0000000000000000e+00  -6.7356092431815921e-03 1.8839992604788389e-05 0.0000000000000000e+00  -6.6634076534271411e-03 -2.7052974341585962e-04 0.0000000000000000e+00  -6.4190029333947209e-03 -5.5565450750628498e-04 0.0000000000000000e+00  -6.0066998186251511e-03 -8.2970188511049148e-04 0.0000000000000000e+00  -5.4348991068454405e-03 -1.0855385347529236e-03 0.0000000000000000e+00  -4.7163261635925716e-03 -1.3158256751781090e-03 0.0000000000000000e+00  -3.8681864826786605e-03 -1.5131471129051150e-03 0.0000000000000000e+00  -2.9117580045309576e-03 -1.6699626173176374e-03 0.0000000000000000e+00  -1.8753527666957868e-03 -1.7805396703272571e-03 0.0000000000000000e+00  -7.8594747387878512e-04 -1.7938202618137510e-03 0.0000000000000000e+00  0.0000000000000000e+00 0.0000000000000000e+00 0.0000000000000000e+00  0.0000000000000000e+00 0.0000000000000000e+00 0.0000000000000000e+00  -8.1324776684682000e-04 2.8770608076456568e-03 0.0000000000000000e+00  -1.9370992823459267e-03 2.8068976307102302e-03 0.0000000000000000e+00  -3.0101269622677955e-03 2.6425455736372779e-03 0.0000000000000000e+00  -4.0045796394439087e-03 2.4074413531349915e-03 0.0000000000000000e+00  -4.8932726216769171e-03 2.1107925035979318e-03 0.0000000000000000e+00  -5.6544953098163885e-03 1.7618508219069773e-03 0.0000000000000000e+00  -6.2700966889104575e-03 1.3699689782181348e-03 0.0000000000000000e+00  -6.7257498370723685e-03 9.4480540347017356e-04 0.0000000000000000e+00  -7.0108580852141075e-03 4.9609981208483466e-04 0.0000000000000000e+00  -7.1184184626684440e-03 3.3625271820699498e-05 0.0000000000000000e+00  -7.0449454717573775e-03 -4.3270055903859835e-04 0.0000000000000000e+00  -6.7905240435830122e-03 -8.9261741197291559e-04 0.0000000000000000e+00  -6.3590217766046784e-03 -1.3353327927871038e-03 0.0000000000000000e+00  -5.7584393159138218e-03 -1.7494439782357516e-03 0.0000000000000000e+00  -5.0013260185223125e-03 -2.1230529354121543e-03 0.0000000000000000e+00  -4.1051213217197860e-03 -2.4439789240196367e-03 0.0000000000000000e+00  -3.0919219144694781e-03 -2.6997221199516501e-03 0.0000000000000000e+00  -1.9922562843717457e-03 -2.8806066692600883e-03 0.0000000000000000e+00  -8.3208879659068494e-04 -2.9126126987654446e-03 0.0000000000000000e+00  0.0000000000000000e+00 0.0000000000000000e+00 0.0000000000000000e+00  0.0000000000000000e+00 0.0000000000000000e+00 0.0000000000000000e+00  -8.8066423175645341e-04 4.0446475190332246e-03 0.0000000000000000e+00  -2.0953816633409589e-03 3.9539690194121228e-03 0.0000000000000000e+00  -3.2548110475869485e-03 3.7209511004431006e-03 0.0000000000000000e+00  -4.3273766692135613e-03 3.3883932181899860e-03 0.0000000000000000e+00  -5.2842532223389147e-03 2.9695848543581467e-03 0.0000000000000000e+00  -6.1025794522545137e-03 2.4779960002413851e-03 0.0000000000000000e+00  -6.7637105700583261e-03 1.9270991537174201e-03 0.0000000000000000e+00  -7.2532353951693688e-03 1.3304741172570959e-03 0.0000000000000000e+00  -7.5606310738284338e-03 7.0153840177409666e-04 0.0000000000000000e+00  -7.6788888018666981e-03 5.3526398358340518e-05 0.0000000000000000e+00  -7.6042681599358952e-03 -6.0025983661370920e-04 0.0000000000000000e+00  -7.3362886630860599e-03 -1.2460430709188028e-03 0.0000000000000000e+00  -6.8780123411066795e-03 -1.8691599445247152e-03 0.0000000000000000e+00  -6.2365995208752186e-03 -2.4538158608829329e-03 0.0000000000000000e+00  -5.4240408388569368e-03 -2.9831524238595471e-03 0.0000000000000000e+00  -4.4578698550621432e-03 -3.4395498106305849e-03 0.0000000000000000e+00  -3.3612194773750071e-03 -3.8046986140280611e-03 0.0000000000000000e+00  -2.1673796302384028e-03 -4.0636409496495008e-03 0.0000000000000000e+00  -9.0459345938372982e-04 -4.1171178994535030e-03 0.0000000000000000e+00  0.0000000000000000e+00 0.0000000000000000e+00 0.0000000000000000e+00  0.0000000000000000e+00 0.0000000000000000e+00 0.0000000000000000e+00  -9.7265239458732046e-04 5.3212034629663511e-03 0.0000000000000000e+00  -2.3114735008219339e-03 5.2059844442237787e-03 0.0000000000000000e+00  -3.5877986950673840e-03 4.8958295881264035e-03 0.0000000000000000e+00  -4.7655295522731674e-03 4.4547824446489921e-03 0.0000000000000000e+00  -5.8133758218717651e-03 3.9010585893462786e-03 0.0000000000000000e+00  -6.7071915804735342e-03 3.2533046648720197e-03 0.0000000000000000e+00  -7.4280135343032681e-03 2.5297576598204128e-03 0.0000000000000000e+00  -7.9617236864490699e-03 1.7482659257169258e-03 0.0000000000000000e+00  -8.2982724014567626e-03 9.2593040659434244e-04 0.0000000000000000e+00  -8.4309116245414820e-03 7.9174904471366602e-05 0.0000000000000000e+00  -8.3556645666280089e-03 -7.7574828382769793e-04 0.0000000000000000e+00  -8.0711995831847568e-03 -1.6219871465798549e-03 0.0000000000000000e+00  -7.5791998866574289e-03 -2.4412828347713943e-03 0.0000000000000000e+00  -6.8852256655005445e-03 -3.2133884011088963e-03 0.0000000000000000e+00  -5.9999509179896647e-03 -3.9159633498361815e-03 0.0000000000000000e+00  -4.9405024037847767e-03 -4.5249223177301987e-03 0.0000000000000000e+00  -3.7310475201273834e-03 -5.0146563565715493e-03 0.0000000000000000e+00  -2.4086331709544783e-03 -5.3633419928458157e-03 0.0000000000000000e+00  -1.0049741073974768e-03 -5.4425205275808507e-03 0.0000000000000000e+00  0.0000000000000000e+00 0.0000000000000000e+00 0.0000000000000000e+00  0.0000000000000000e+00 0.0000000000000000e+00 0.0000000000000000e+00  -1.0928738209432924e-03 6.7425234598042453e-03 0.0000000000000000e+00  -2.5938436632097798e-03 6.5974441855248100e-03 0.0000000000000000e+00  -4.0216545019302607e-03 6.1981681215592605e-03 0.0000000000000000e+00  -5.3342968690244640e-03 5.6329655503038287e-03 0.0000000000000000e+00  -6.4973819720125347e-03 4.9266171150011253e-03 0.0000000000000000e+00  -7.4855179925934429e-03 4.1043730655216720e-03 0.0000000000000000e+00  -8.2799849244026870e-03 3.1902384697604382e-03 0.0000000000000000e+00  -8.8677717096539172e-03 2.2067859457625440e-03 0.0000000000000000e+00  -9.2401064020058189e-03 1.1747124673090461e-03 0.0000000000000000e+00  -9.3910613366938074e-03 1.1309495859124174e-04 0.0000000000000000e+00  -9.3165659990860714e-03 -9.5967399672807808e-04 0.0000000000000000e+00  -9.0140684869618338e-03 -2.0245207908404102e-03 0.0000000000000000e+00  -8.4829928064314736e-03 -3.0602201956671272e-03 0.0000000000000000e+00  -7.7260268911621870e-03 -4.0422009091984346e-03 0.0000000000000000e+00  -6.7511247480810856e-03 -4.9420305296450613e-03 0.0000000000000000e+00  -5.5738669378652865e-03 -5.7276856762646586e-03 0.0000000000000000e+00  -4.2190229331527428e-03 -6.3639773253326495e-03 0.0000000000000000e+00  -2.7283112440583198e-03 -6.8196220968922477e-03 0.0000000000000000e+00  -1.1384623292054988e-03 -6.9308012785965723e-03 0.0000000000000000e+00  0.0000000000000000e+00 0.0000000000000000e+00 0.0000000000000000e+00  0.0000000000000000e+00 0.0000000000000000e+00 0.0000000000000000e+00  -1.2465917521259705e-03 8.3506570386346120e-03 0.0000000000000000e+00  -2.9542827304623411e-03 8.1678499980064583e-03 0.0000000000000000e+00  -4.5732722246280407e-03 7.6623316291972981e-03 0.0000000000000000e+00  -6.0537324232141296e-03 6.9510819669878652e-03 0.0000000000000000e+00  -7.3575286477853994e-03 6.0679924196202009e-03 0.0000000000000000e+00  -8.4584957479044657e-03 5.0471261483296288e-03 0.0000000000000000e+00  -9.3393611749650555e-03 3.9197197906737464e-03 0.0000000000000000e+00  -9.9897533839172700e-03 2.7136480127872612e-03 0.0000000000000000e+00  -1.0403626299213029e-02 1.4529195546198210e-03 0.0000000000000000e+00  -1.0576900703337729e-02 1.5828419009680919e-04 0.0000000000000000e+00  -1.0505775990934911e-02 -1.1511451125805327e-03 0.0000000000000000e+00  -1.0186029737486330e-02 -2.4556094365030556e-03 0.0000000000000000e+00  -9.6135219011822346e-03 -3.7321856177781922e-03 0.0000000000000000e+00  -8.7860212124951792e-03 -4.9525443670966080e-03 0.0000000000000000e+00  -7.7063055723644814e-03 -6.0815957660469372e-03 0.0000000000000000e+00  -6.3861417089425086e-03 -7.0773761821526643e-03 0.0000000000000000e+00  -4.8495879679508270e-03 -7.8916553626713782e-03 0.0000000000000000e+00  -3.1438008655105183e-03 -8.4794679090720738e-03 0.0000000000000000e+00  -1.3126434832685958e-03 -8.6328311290533640e-03 0.0000000000000000e+00  0.0000000000000000e+00 0.0000000000000000e+00 0.0000000000000000e+00  0.0000000000000000e+00 0.0000000000000000e+00 0.0000000000000000e+00  -1.4414589074884265e-03 1.0196130651064339e-02 0.0000000000000000e+00  -3.4098188865783882e-03 9.9637801635913525e-03 0.0000000000000000e+00  -5.2665700637457881e-03 9.3274101625069692e-03 0.0000000000000000e+00  -6.9514473647891289e-03 8.4393995621299175e-03 0.0000000000000000e+00  -8.4220830476617915e-03 7.3468053130865980e-03 0.0000000000000000e+00  -9.6527590096076900e-03 6.0958827506737449e-03 0.0000000000000000e+00  -1.0629945040175930e-02 4.7272003335375240e-03 0.0000000000000000e+00  -1.1348578844825968e-02 3.2745981539548425e-03 0.0000000000000000e+00  -1.1807772665321369e-02 1.7647424722512864e-03 0.0000000000000000e+00  -1.2007036101081961e-02 2.1837003057104893e-04 0.0000000000000000e+00  -1.1943574261585153e-02 -1.3470393347441711e-03 0.0000000000000000e+00  -1.1611010407543152e-02 -2.9136456946929272e-03 0.0000000000000000e+00  -1.0999810406088226e-02 -4.4591775941500494e-03 0.0000000000000000e+00  -1.0099679114715782e-02 -5.9530022830131301e-03 0.0000000000000000e+00  -8.9041067359223406e-03 -7.3531773721648899e-03 0.0000000000000000e+00  -7.4168130197341748e-03 -8.6052596863086615e-03 0.0000000000000000e+00  -5.6581062321138954e-03 -9.6427929459756475e-03 0.0000000000000000e+00  -3.6808143193603512e-03 -1.0400223889367790e-02 0.0000000000000000e+00  -1.5387625171663262e-03 -1.0612221138201539e-02 0.0000000000000000e+00  0.0000000000000000e+00 0.0000000000000000e+00 0.0000000000000000e+00  0.0000000000000000e+00 0.0000000000000000e+00 0.0000000000000000e+00  -1.6888299818227179e-03 1.2341881150022100e-02 0.0000000000000000e+00  -3.9853697128071691e-03 1.2041790330824311e-02 0.0000000000000000e+00  -6.1358228503550589e-03 1.1238543276775486e-02 0.0000000000000000e+00  -8.0658320675842648e-03 1.0130072880354651e-02 0.0000000000000000e+00  -9.7287609601482174e-03 8.7831217679087761e-03 0.0000000000000000e+00  -1.1101969692462093e-02 7.2612794721396970e-03 0.0000000000000000e+00  -1.2179787686544191e-02 5.6173542129310701e-03 0.0000000000000000e+00  -1.2966894978364037e-02 3.8917632470462874e-03 0.0000000000000000e+00  -1.3471428623267329e-02 2.1125016065024881e-03 0.0000000000000000e+00  -1.3699243043794685e-02 2.9753301917506551e-04 0.0000000000000000e+00  -1.3649868356404601e-02 -1.5409935352054987e-03 0.0000000000000000e+00  -1.3314392903719840e-02 -3.3913247531025120e-03 0.0000000000000000e+00  -1.2675527757100770e-02 -5.2359127082185269e-03 0.0000000000000000e+00  -1.1710356576801396e-02 -7.0449425835909883e-03 0.0000000000000000e+00  -1.0396485622320852e-02 -8.7705393764891306e-03 0.0000000000000000e+00  -8.7219783596808736e-03 -1.0343006597816399e-02 0.0000000000000000e+00  -6.6969310431617664e-03 -1.1670079602782876e-02 0.0000000000000000e+00  -4.3784887130115888e-03 -1.2654168038848480e-02 0.0000000000000000e+00  -1.8341083959227537e-03 -1.2951939824010644e-02 0.0000000000000000e+00  0.0000000000000000e+00 0.0000000000000000e+00 0.0000000000000000e+00  0.0000000000000000e+00 0.0000000000000000e+00 0.0000000000000000e+00  -2.0060043217252728e-03 1.4869347253720064e-02 0.0000000000000000e+00  -4.7182885052639489e-03 1.4472656737306421e-02 0.0000000000000000e+00  -7.2311395009489890e-03 1.3448454047561460e-02 0.0000000000000000e+00  -9.4510176452474639e-03 1.2056099035526161e-02 0.0000000000000000e+00  -1.1328176297488583e-02 1.0392614766651341e-02 0.0000000000000000e+00  -1.2848357287303689e-02 8.5466437126546918e-03 0.0000000000000000e+00  -1.4020920008761388e-02 6.5870017610662321e-03 0.0000000000000000e+00  -1.4867370642772654e-02 4.5608383017660108e-03 0.0000000000000000e+00  -1.5410692048814886e-02 2.4949326972366708e-03 0.0000000000000000e+00  -1.5667151508482524e-02 4.0014481603946724e-04 0.0000000000000000e+00  -1.5640753327780546e-02 -1.7221945092652550e-03 0.0000000000000000e+00  -1.5320063544278962e-02 -3.8726827413117977e-03 0.0000000000000000e+00  -1.4677407176660990e-02 -6.0451136439289089e-03 0.0000000000000000e+00  -1.3671206976095184e-02 -8.2165490559056083e-03 0.0000000000000000e+00  -1.2253170003634743e-02 -1.0336807060931270e-02 0.0000000000000000e+00  -1.0382447043234655e-02 -1.2319126811277809e-02 0.0000000000000000e+00  -8.0455921871600364e-03 -1.4034929613866006e-02 0.0000000000000000e+00  -5.2984130638911485e-03 -1.5335436097580573e-02 0.0000000000000000e+00  -2.2261830288894269e-03 -1.5765187498481673e-02 0.0000000000000000e+00  0.0000000000000000e+00 0.0000000000000000e+00 0.0000000000000000e+00  0.0000000000000000e+00 0.0000000000000000e+00 0.0000000000000000e+00  -2.4202483840970079e-03 1.7888291102148471e-02 0.0000000000000000e+00  -5.6662982745828878e-03 1.7347793303698251e-02 0.0000000000000000e+00  -8.6276324300387317e-03 1.6019022220618698e-02 0.0000000000000000e+00  -1.1184691892288958e-02 1.4248617178237765e-02 0.0000000000000000e+00  -1.3288770492125129e-02 1.2181264492852001e-02 0.0000000000000000e+00  -1.4944450514155209e-02 9.9419128620755713e-03 0.0000000000000000e+00  -1.6188382440637365e-02 7.6195921981822498e-03 0.0000000000000000e+00  -1.7069786305866624e-02 5.2668615754755642e-03 0.0000000000000000e+00  -1.7634686788002563e-02 2.9045581415964397e-03 0.0000000000000000e+00  -1.7915241623501495e-02 5.2991394967546622e-04 0.0000000000000000e+00  -1.7923081316602193e-02 -1.8741691974691502e-03 0.0000000000000000e+00  -1.7645158181508368e-02 -4.3293343372011487e-03 0.0000000000000000e+00  -1.7041333982002624e-02 -6.8507092051684889e-03 0.0000000000000000e+00  -1.6044596040953645e-02 -9.4330845076158881e-03 0.0000000000000000e+00  -1.4566945185341211e-02 -1.2033467811632016e-02 0.0000000000000000e+00  -1.2516278191796161e-02 -1.4550501523575270e-02 0.0000000000000000e+00  -9.8285548301339752e-03 -1.6806596360939084e-02 0.0000000000000000e+00  -6.5415853743134135e-03 -1.8570264881929362e-02 0.0000000000000000e+00  -2.7611353246797866e-03 -1.9214691827857761e-02 0.0000000000000000e+00  0.0000000000000000e+00 0.0000000000000000e+00 0.0000000000000000e+00  0.0000000000000000e+00 0.0000000000000000e+00 0.0000000000000000e+00  -2.9763726219924811e-03 2.1553254333246955e-02 0.0000000000000000e+00  -6.9217597868397223e-03 2.0789166980731768e-02 0.0000000000000000e+00  -1.0441056075452608e-02 1.9022166069677084e-02 0.0000000000000000e+00  -1.3380326144056010e-02 1.6730698188985791e-02 0.0000000000000000e+00  -1.5703450167215742e-02 1.4135658046846897e-02 0.0000000000000000e+00  -1.7454397370968350e-02 1.1413726015112646e-02 0.0000000000000000e+00  -1.8717722355162336e-02 8.6770077602877430e-03 0.0000000000000000e+00  -1.9586248982300616e-02 5.9783305890484528e-03 0.0000000000000000e+00  -2.0139474437127027e-02 3.3240120709837860e-03 0.0000000000000000e+00  -2.0431811494370917e-02 6.8826497346259586e-04 0.0000000000000000e+00  -2.0486505567662006e-02 -1.9740760761782039e-03 0.0000000000000000e+00  -2.0291365409471865e-02 -4.7164824076315406e-03 0.0000000000000000e+00  -1.9794119955369407e-02 -7.5890195400087354e-03 0.0000000000000000e+00  -1.8897482480598516e-02 -1.0622120947727855e-02 0.0000000000000000e+00  -1.7457871699182861e-02 -1.3800340526640958e-02 0.0000000000000000e+00  -1.5296597378832289e-02 -1.7022444573066311e-02 0.0000000000000000e+00  -1.2246866261502060e-02 -2.0053929858063972e-02 0.0000000000000000e+00  -8.2832164756388646e-03 -2.2533394610868614e-02 0.0000000000000000e+00  -3.5231258767343195e-03 -2.3552150397942891e-02 0.0000000000000000e+00  0.0000000000000000e+00 0.0000000000000000e+00 0.0000000000000000e+00  0.0000000000000000e+00 0.0000000000000000e+00 0.0000000000000000e+00  -3.7515145012817349e-03 2.6093572987813403e-02 0.0000000000000000e+00  -8.6383573301976983e-03 2.4964375176390361e-02 0.0000000000000000e+00  -1.2855086361986940e-02 2.2537802920205827e-02 0.0000000000000000e+00  -1.6205971766650805e-02 1.9503660851740875e-02 0.0000000000000000e+00  -1.8697434559577463e-02 1.6205379272224530e-02 0.0000000000000000e+00  -2.0453148027706810