<?xml version="1.0"?>
<VTKFile type="UnstructuredGrid"  version="0.1"  >
<UnstructuredGrid>
<Piece  NumberOfPoints="441" NumberOfCells="800">
<Points>
<DataArray  type="Float64"  NumberOfComponents="3"  format="ascii">0 0 0  0.05 0 0  0.1 0 0  0.15 0 0  0.2 0 0  0.25 0 0  0.3 0 0  0.35 0 0  0.4 0 0  0.45 0 0  0.5 0 0  0.55 0 0  0.6 0 0  0.65 0 0  0.7 0 0  0.75 0 0  0.8 0 0  0.85 0 0  0.9 0 0  0.95 0 0  1 0 0  0 0.05 0  0.05 0.05 0  0.1 0.05 0  0.15 0.05 0  0.2 0.05 0  0.25 0.05 0  0.3 0.05 0  0.35 0.05 0  0.4 0.05 0  0.45 0.05 0  0.5 0.05 0  0.55 0.05 0  0.6 0.05 0  0.65 0.05 0  0.7 0.05 0  0.75 0.05 0  0.8 0.05 0  0.85 0.05 0  0.9 0.05 0  0.95 0.05 0  1 0.05 0  0 0.1 0  0.05 0.1 0  0.1 0.1 0  0.15 0.1 0  0.2 0.1 0  0.25 0.1 0  0.3 0.1 0  0.35 0.1 0  0.4 0.1 0  0.45 0.1 0  0.5 0.1 0  0.55 0.1 0  0.6 0.1 0  0.65 0.1 0  0.7 0.1 0  0.75 0.1 0  0.8 0.1 0  0.85 0.1 0  0.9 0.1 0  0.95 0.1 0  1 0.1 0  0 0.15 0  0.05 0.15 0  0.1 0.15 0  0.15 0.15 0  0.2 0.15 0  0.25 0.15 0  0.3 0.15 0  0.35 0.15 0  0.4 0.15 0  0.45 0.15 0  0.5 0.15 0  0.55 0.15 0  0.6 0.15 0  0.65 0.15 0  0.7 0.15 0  0.75 0.15 0  0.8 0.15 0  0.85 0.15 0  0.9 0.15 0  0.95 0.15 0  1 0.15 0  0 0.2 0  0.05 0.2 0  0.1 0.2 0  0.15 0.2 0  0.2 0.2 0  0.25 0.2 0  0.3 0.2 0  0.35 0.2 0  0.4 0.2 0  0.45 0.2 0  0.5 0.2 0  0.55 0.2 0  0.6 0.2 0  0.65 0.2 0  0.7 0.2 0  0.75 0.2 0  0.8 0.2 0  0.85 0.2 0  0.9 0.2 0  0.95 0.2 0  1 0.2 0  0 0.25 0  0.05 0.25 0  0.1 0.25 0  0.15 0.25 0  0.2 0.25 0  0.25 0.25 0  0.3 0.25 0  0.35 0.25 0  0.4 0.25 0  0.45 0.25 0  0.5 0.25 0  0.55 0.25 0  0.6 0.25 0  0.65 0.25 0  0.7 0.25 0  0.75 0.25 0  0.8 0.25 0  0.85 0.25 0  0.9 0.25 0  0.95 0.25 0  1 0.25 0  0 0.3 0  0.05 0.3 0  0.1 0.3 0  0.15 0.3 0  0.2 0.3 0  0.25 0.3 0  0.3 0.3 0  0.35 0.3 0  0.4 0.3 0  0.45 0.3 0  0.5 0.3 0  0.55 0.3 0  0.6 0.3 0  0.65 0.3 0  0.7 0.3 0  0.75 0.3 0  0.8 0.3 0  0.85 0.3 0  0.9 0.3 0  0.95 0.3 0  1 0.3 0  0 0.35 0  0.05 0.35 0  0.1 0.35 0  0.15 0.35 0  0.2 0.35 0  0.25 0.35 0  0.3 0.35 0  0.35 0.35 0  0.4 0.35 0  0.45 0.35 0  0.5 0.35 0  0.55 0.35 0  0.6 0.35 0  0.65 0.35 0  0.7 0.35 0  0.75 0.35 0  0.8 0.35 0  0.85 0.35 0  0.9 0.35 0  0.95 0.35 0  1 0.35 0  0 0.4 0  0.05 0.4 0  0.1 0.4 0  0.15 0.4 0  0.2 0.4 0  0.25 0.4 0  0.3 0.4 0  0.35 0.4 0  0.4 0.4 0  0.45 0.4 0  0.5 0.4 0  0.55 0.4 0  0.6 0.4 0  0.65 0.4 0  0.7 0.4 0  0.75 0.4 0  0.8 0.4 0  0.85 0.4 0  0.9 0.4 0  0.95 0.4 0  1 0.4 0  0 0.45 0  0.05 0.45 0  0.1 0.45 0  0.15 0.45 0  0.2 0.45 0  0.25 0.45 0  0.3 0.45 0  0.35 0.45 0  0.4 0.45 0  0.45 0.45 0  0.5 0.45 0  0.55 0.45 0  0.6 0.45 0  0.65 0.45 0  0.7 0.45 0  0.75 0.45 0  0.8 0.45 0  0.85 0.45 0  0.9 0.45 0  0.95 0.45 0  1 0.45 0  0 0.5 0  0.05 0.5 0  0.1 0.5 0  0.15 0.5 0  0.2 0.5 0  0.25 0.5 0  0.3 0.5 0  0.35 0.5 0  0.4 0.5 0  0.45 0.5 0  0.5 0.5 0  0.55 0.5 0  0.6 0.5 0  0.65 0.5 0  0.7 0.5 0  0.75 0.5 0  0.8 0.5 0  0.85 0.5 0  0.9 0.5 0  0.95 0.5 0  1 0.5 0  0 0.55 0  0.05 0.55 0  0.1 0.55 0  0.15 0.55 0  0.2 0.55 0  0.25 0.55 0  0.3 0.55 0  0.35 0.55 0  0.4 0.55 0  0.45 0.55 0  0.5 0.55 0  0.55 0.55 0  0.6 0.55 0  0.65 0.55 0  0.7 0.55 0  0.75 0.55 0  0.8 0.55 0  0.85 0.55 0  0.9 0.55 0  0.95 0.55 0  1 0.55 0  0 0.6 0  0.05 0.6 0  0.1 0.6 0  0.15 0.6 0  0.2 0.6 0  0.25 0.6 0  0.3 0.6 0  0.35 0.6 0  0.4 0.6 0  0.45 0.6 0  0.5 0.6 0  0.55 0.6 0  0.6 0.6 0  0.65 0.6 0  0.7 0.6 0  0.75 0.6 0  0.8 0.6 0  0.85 0.6 0  0.9 0.6 0  0.95 0.6 0  1 0.6 0  0 0.65 0  0.05 0.65 0  0.1 0.65 0  0.15 0.65 0  0.2 0.65 0  0.25 0.65 0  0.3 0.65 0  0.35 0.65 0  0.4 0.65 0  0.45 0.65 0  0.5 0.65 0  0.55 0.65 0  0.6 0.65 0  0.65 0.65 0  0.7 0.65 0  0.75 0.65 0  0.8 0.65 0  0.85 0.65 0  0.9 0.65 0  0.95 0.65 0  1 0.65 0  0 0.7 0  0.05 0.7 0  0.1 0.7 0  0.15 0.7 0  0.2 0.7 0  0.25 0.7 0  0.3 0.7 0  0.35 0.7 0  0.4 0.7 0  0.45 0.7 0  0.5 0.7 0  0.55 0.7 0  0.6 0.7 0  0.65 0.7 0  0.7 0.7 0  0.75 0.7 0  0.8 0.7 0  0.85 0.7 0  0.9 0.7 0  0.95 0.7 0  1 0.7 0  0 0.75 0  0.05 0.75 0  0.1 0.75 0  0.15 0.75 0  0.2 0.75 0  0.25 0.75 0  0.3 0.75 0  0.35 0.75 0  0.4 0.75 0  0.45 0.75 0  0.5 0.75 0  0.55 0.75 0  0.6 0.75 0  0.65 0.75 0  0.7 0.75 0  0.75 0.75 0  0.8 0.75 0  0.85 0.75 0  0.9 0.75 0  0.95 0.75 0  1 0.75 0  0 0.8 0  0.05 0.8 0  0.1 0.8 0  0.15 0.8 0  0.2 0.8 0  0.25 0.8 0  0.3 0.8 0  0.35 0.8 0  0.4 0.8 0  0.45 0.8 0  0.5 0.8 0  0.55 0.8 0  0.6 0.8 0  0.65 0.8 0  0.7 0.8 0  0.75 0.8 0  0.8 0.8 0  0.85 0.8 0  0.9 0.8 0  0.95 0.8 0  1 0.8 0  0 0.85 0  0.05 0.85 0  0.1 0.85 0  0.15 0.85 0  0.2 0.85 0  0.25 0.85 0  0.3 0.85 0  0.35 0.85 0  0.4 0.85 0  0.45 0.85 0  0.5 0.85 0  0.55 0.85 0  0.6 0.85 0  0.65 0.85 0  0.7 0.85 0  0.75 0.85 0  0.8 0.85 0  0.85 0.85 0  0.9 0.85 0  0.95 0.85 0  1 0.85 0  0 0.9 0  0.05 0.9 0  0.1 0.9 0  0.15 0.9 0  0.2 0.9 0  0.25 0.9 0  0.3 0.9 0  0.35 0.9 0  0.4 0.9 0  0.45 0.9 0  0.5 0.9 0  0.55 0.9 0  0.6 0.9 0  0.65 0.9 0  0.7 0.9 0  0.75 0.9 0  0.8 0.9 0  0.85 0.9 0  0.9 0.9 0  0.95 0.9 0  1 0.9 0  0 0.95 0  0.05 0.95 0  0.1 0.95 0  0.15 0.95 0  0.2 0.95 0  0.25 0.95 0  0.3 0.95 0  0.35 0.95 0  0.4 0.95 0  0.45 0.95 0  0.5 0.95 0  0.55 0.95 0  0.6 0.95 0  0.65 0.95 0  0.7 0.95 0  0.75 0.95 0  0.8 0.95 0  0.85 0.95 0  0.9 0.95 0  0.95 0.95 0  1 0.95 0  0 1 0  0.05 1 0  0.1 1 0  0.15 1 0  0.2 1 0  0.25 1 0  0.3 1 0  0.35 1 0  0.4 1 0  0.45 1 0  0.5 1 0  0.55 1 0  0.6 1 0  0.65 1 0  0.7 1 0  0.75 1 0  0.8 1 0  0.85 1 0  0.9 1 0  0.95 1 0  1 1 0  </DataArray>
</Points>
<Cells>
[...]
<PointData  Vectors="f_137"> 
<DataArray  type="Float64"  Name="f_137"  NumberOfComponents="3" format="ascii">0.0000000000000000e+00 0.0000000000000000e+00 0.0000000000000000e+00  0.0000000000000000e+00 0.0000000000000000e+00 0.0000000000000000e+00  0.0000000000000000e+00 0.0000000000000000e+00 0.0000000000000000e+00  0.0000000000000000e+00 0.0000000000000000e+00 0.0000000000000000e+00  0.0000000000000000e+00 0.0000000000000000e+00 0.0000000000000000e+00  0.0000000000000000e+00 0.0000000000000000e+00 0.0000000000000000e+00  0.0000000000000000e+00 0.0000000000000000e+00 0.0000000000000000e+00  0.0000000000000000e+00 0.0000000000000000e+00 0.0000000000000000e+00  0.0000000000000000e+00 0.0000000000000000e+00 0.0000000000000000e+00  0.0000000000000000e+00 0.0000000000000000e+00 0.0000000000000000e+00  0.0000000000000000e+00 0.0000000000000000e+00 0.0000000000000000e+00  0.0000000000000000e+00 0.0000000000000000e+00 0.0000000000000000e+00  0.0000000000000000e+00 0.0000000000000000e+00 0.0000000000000000e+00  0.0000000000000000e+00 0.0000000000000000e+00 0.0000000000000000e+00  0.0000000000000000e+00 0.0000000000000000e+00 0.0000000000000000e+00  0.0000000000000000e+00 0.0000000000000000e+00 0.0000000000000000e+00  0.0000000000000000e+00 0.0000000000000000e+00 0.0000000000000000e+00  0.0000000000000000e+00 0.0000000000000000e+00 0.0000000000000000e+00  0.0000000000000000e+00 0.0000000000000000e+00 0.0000000000000000e+00  0.0000000000000000e+00 0.0000000000000000e+00 0.0000000000000000e+00  0.0000000000000000e+00 0.0000000000000000e+00 0.0000000000000000e+00  0.0000000000000000e+00 0.0000000000000000e+00 0.0000000000000000e+00  -7.6013131321561473e-04 7.5147997488477088e-04 0.0000000000000000e+00  -1.8132435152925794e-03 7.2681488458193656e-04 0.0000000000000000e+00  -2.8148520662420436e-03 6.8358780948811959e-04 0.0000000000000000e+00  -3.7429397925179187e-03 6.2259845931351315e-04 0.0000000000000000e+00  -4.5736455281482789e-03 5.4574605150697160e-04 0.0000000000000000e+00  -5.2857074640666399e-03 4.5517566994661868e-04 0.0000000000000000e+00  -5.8614606040350058e-03 3.5322927962989589e-04 0.0000000000000000e+00  -6.2866786415335081e-03 2.4237644587368401e-04 0.0000000000000000e+00  -6.5507345088541133e-03 1.2517324315013790e-04 0.0000000000000000e+00  -6.6466786286543721e-03 4.2419060079066576e-06 0.0000000000000000e+00  -6.5713057255462623e-03 -1.1771461400097304e-04 0.0000000000000000e+00  -6.3252563678571124e-03 -2.3788275584138747e-04 0.0000000000000000e+00  -5.9131626579277934e-03 -3.5331570446312384e-04 0.0000000000000000e+00  -5.3438159483330762e-03 -4.6094190151880219e-04 0.0000000000000000e+00  -4.6302890061839701e-03 -5.5761739235680086e-04 0.0000000000000000e+00  -3.7899367834629731e-03 -6.4014117337347052e-04 0.0000000000000000e+00  -2.8445081305932822e-03 -7.0517606858712238e-04 0.0000000000000000e+00  -1.8218342860857606e-03 -7.5173316986164535e-04 0.0000000000000000e+00  -7.4114781834856583e-04 -7.3845190853147292e-04 0.0000000000000000e+00  0.0000000000000000e+00 0.0000000000000000e+00 0.0000000000000000e+00  0.0000000000000000e+00 0.0000000000000000e+00 0.0000000000000000e+00  -7.8442030725411275e-04 1.8338598008820425e-03 0.0000000000000000e+00  -1.8824968634597796e-03 1.7876442684540627e-03 0.0000000000000000e+00  -2.9337487806813663e-03 1.6855607842582887e-03 0.0000000000000000e+00  -3.9090197385905755e-03 1.5366724954119398e-03 0.0000000000000000e+00  -4.7820400416685258e-03 1.3486052466778083e-03 0.0000000000000000e+00  -5.5310224052645199e-03 1.1268470772482205e-03 0.0000000000000000e+00  -6.1375805336042226e-03 8.7718506125306127e-04 0.0000000000000000e+00  -6.5869665672842661e-03 6.0572550481530619e-04 0.0000000000000000e+00  -6.8681464907023237e-03 3.1872467461134166e-04 0.0000000000000000e+00  -6.9738097844903764e-03 2.2548368669087461e-05 0.0000000000000000e+00  -6.9003985554627690e-03 -2.7628149600767251e-04 0.0000000000000000e+00  -6.6482059966906076e-03 -5.7099575727796227e-04 0.0000000000000000e+00  -6.2215601886687500e-03 -8.5449777556301470e-04 0.0000000000000000e+00  -5.6290698411059527e-03 -1.1193540206830555e-03 0.0000000000000000e+00  -4.8838762802457247e-03 -1.3579035886775279e-03 0.0000000000000000e+00  -4.0038428278810906e-03 -1.5624158624496648e-03 0.0000000000000000e+00  -3.0110519366259563e-03 -1.7248776516875226e-03 0.0000000000000000e+00  -1.9352221644631570e-03 -1.8376740737581563e-03 0.0000000000000000e+00  -8.0476981206957455e-04 -1.8497360460829259e-03 0.0000000000000000e+00  0.0000000000000000e+00 0.0000000000000000e+00 0.0000000000000000e+00  0.0000000000000000e+00 0.0000000000000000e+00 0.0000000000000000e+00  -8.3036623747129027e-04 2.9605501976791015e-03 0.0000000000000000e+00  -1.9940390709336973e-03 2.8969771422477798e-03 0.0000000000000000e+00  -3.1056105829180059e-03 2.7297322703395683e-03 0.0000000000000000e+00  -4.1363981988849427e-03 2.4881409782903305e-03 0.0000000000000000e+00  -5.0581233130477122e-03 2.1830040567526934e-03 0.0000000000000000e+00  -5.8482572655577216e-03 1.8237028642807045e-03 0.0000000000000000e+00  -6.4878965860145363e-03 1.4197755384735865e-03 0.0000000000000000e+00  -6.9620654325153663e-03 9.8111137551615160e-04 0.0000000000000000e+00  -7.2596222191217627e-03 5.1770622903003674e-04 0.0000000000000000e+00  -7.3731285495884759e-03 3.9619288911019784e-05 0.0000000000000000e+00  -7.2987822076298614e-03 -4.4290649058230787e-04 0.0000000000000000e+00  -7.0364857044670388e-03 -9.1923464315690263e-04 0.0000000000000000e+00  -6.5900822121795653e-03 -1.3781349342168762e-03 0.0000000000000000e+00  -5.9677369150861843e-03 -1.8077022354679518e-03 0.0000000000000000e+00  -5.1823880944861806e-03 -2.1954895341413294e-03 0.0000000000000000e+00  -4.2521323815591702e-03 -2.5287665337849164e-03 0.0000000000000000e+00  -3.1998991596488761e-03 -2.7942603653919296e-03 0.0000000000000000e+00  -2.0577759201360402e-03 -2.9795256921803640e-03 0.0000000000000000e+00  -8.5308864481808250e-04 -3.0090812502751143e-03 0.0000000000000000e+00  0.0000000000000000e+00 0.0000000000000000e+00 0.0000000000000000e+00  0.0000000000000000e+00 0.0000000000000000e+00 0.0000000000000000e+00  -8.9875254620266714e-04 4.1663736658106871e-03 0.0000000000000000e+00  -2.1560548690659513e-03 4.0842485696564977e-03 0.0000000000000000e+00  -3.3567549514584485e-03 3.8470721053304362e-03 0.0000000000000000e+00  -4.4682726408768556e-03 3.5051297982534777e-03 0.0000000000000000e+00  -5.4605950788221723e-03 3.0740067662751538e-03 0.0000000000000000e+00  -6.3100135081798816e-03 2.5674332430654745e-03 0.0000000000000000e+00  -6.9970967985366001e-03 1.9991529653119234e-03 0.0000000000000000e+00  -7.5067579093259628e-03 1.3830761026383557e-03 0.0000000000000000e+00  -7.8279001461203056e-03 7.3298046178638067e-04 0.0000000000000000e+00  -7.9530413510236157e-03 6.2494371454329808e-05 0.0000000000000000e+00  -7.8780717030408360e-03 -6.1463692718199893e-04 0.0000000000000000e+00  -7.6022586929644000e-03 -1.2841221815528667e-03 0.0000000000000000e+00  -7.1285571534182015e-03 -1.9306911099894414e-03 0.0000000000000000e+00  -6.4642072649904693e-03 -2.5378367107316974e-03 0.0000000000000000e+00  -5.6215206906748121e-03 -3.0878998043046488e-03 0.0000000000000000e+00  -4.6186631032364110e-03 -3.5624329601491546e-03 0.0000000000000000e+00  -3.4796201026900076e-03 -3.9420090425993396e-03 0.0000000000000000e+00  -2.2394025146519198e-03 -4.2078355252596743e-03 0.0000000000000000e+00  -9.2786759085456934e-04 -4.2577104143107572e-03 0.0000000000000000e+00  0.0000000000000000e+00 0.0000000000000000e+00 0.0000000000000000e+00  0.0000000000000000e+00 0.0000000000000000e+00 0.0000000000000000e+00  -9.9213174290655164e-04 5.4842257918873609e-03 0.0000000000000000e+00  -2.3774355147190940e-03 5.3797117049308556e-03 0.0000000000000000e+00  -3.6987953802542777e-03 5.0640372247467763e-03 0.0000000000000000e+00  -4.9190345871666435e-03 4.6104812159503059e-03 0.0000000000000000e+00  -6.0056065097516724e-03 4.0403545424010194e-03 0.0000000000000000e+00  -6.9334560507524241e-03 3.3726871885150014e-03 0.0000000000000000e+00  -7.6828009557289587e-03 2.6260871139347636e-03 0.0000000000000000e+00  -8.2388225767865472e-03 1.8188359722245580e-03 0.0000000000000000e+00  -8.5908715624133866e-03 9.6849236803267221e-04 0.0000000000000000e+00  -8.7316867930001558e-03 9.1965998572928330e-05 0.0000000000000000e+00  -8.6568572057072694e-03 -7.9395229047489815e-04 0.0000000000000000e+00  -8.3647027610874187e-03 -1.6717820400906644e-03 0.0000000000000000e+00  -7.8566740842398314e-03 -2.5225038451462071e-03 0.0000000000000000e+00  -7.1382715943330019e-03 -3.3249455468498078e-03 0.0000000000000000e+00  -6.2203653342410318e-03 -4.0556837544033072e-03 0.0000000000000000e+00  -5.1206470654221294e-03 -4.6894665892410507e-03 0.0000000000000000e+00  -3.8641419692622019e-03 -5.1991215631887527e-03 0.0000000000000000e+00  -2.4898544837362695e-03 -5.5577272993541874e-03 0.0000000000000000e+00  -1.0313937607855823e-03 -5.6322303375529632e-03 0.0000000000000000e+00  0.0000000000000000e+00 0.0000000000000000e+00 0.0000000000000000e+00  0.0000000000000000e+00 0.0000000000000000e+00 0.0000000000000000e+00  -1.1141772068914569e-03 6.9509133249066705e-03 0.0000000000000000e+00  -2.6667132297372616e-03 6.8189780334208406e-03 0.0000000000000000e+00  -4.1444621500358499e-03 6.4126984315368198e-03 0.0000000000000000e+00  -5.5042268781422283e-03 5.8315670533434991e-03 0.0000000000000000e+00  -6.7102587564290411e-03 5.1043563388827127e-03 0.0000000000000000e+00  -7.7361930064812380e-03 4.2568565953971221e-03 0.0000000000000000e+00  -8.5624598585852738e-03 3.3135602995919269e-03 0.0000000000000000e+00  -9.1753364298464441e-03 2.2975842139851105e-03 0.0000000000000000e+00  -9.5654406845344913e-03 1.2301721142031422e-03 0.0000000000000000e+00  -9.7263015591669104e-03 1.3095402028095836e-04 0.0000000000000000e+00  -9.6533436802230272e-03 -9.8108177341937604e-04 0.0000000000000000e+00  -9.3435413417586790e-03 -2.0861627641087549e-03 0.0000000000000000e+00  -8.7959031545059643e-03 -3.1621862235243826e-03 0.0000000000000000e+00  -8.0128335143948969e-03 -4.1834546081514525e-03 0.0000000000000000e+00  -7.0022590021020280e-03 -5.1201390131990808e-03 0.0000000000000000e+00  -5.7801714431430463e-03 -5.9386241901115975e-03 0.0000000000000000e+00  -4.3721546913988042e-03 -6.6015589007943970e-03 0.0000000000000000e+00  -2.8221773606432639e-03 -7.0709994925432758e-03 0.0000000000000000e+00  -1.1692696362179174e-03 -7.1765577359415829e-03 0.0000000000000000e+00  0.0000000000000000e+00 0.0000000000000000e+00 0.0000000000000000e+00  0.0000000000000000e+00 0.0000000000000000e+00 0.0000000000000000e+00  -1.2701765029424729e-03 8.6096442147719100e-03 0.0000000000000000e+00  -3.0358497264105916e-03 8.4427575137549435e-03 0.0000000000000000e+00  -4.7109339745774045e-03 7.9285590638421780e-03 0.0000000000000000e+00  -6.2442726253785800e-03 7.1975465591970610e-03 0.0000000000000000e+00  -7.5962319907296981e-03 6.2886331569661337e-03 0.0000000000000000e+00  -8.7396051220296513e-03 5.2366246886846098e-03 0.0000000000000000e+00  -9.6562560598210459e-03 4.0733957089404901e-03 0.0000000000000000e+00  -1.0335121804076027e-02 2.8274912427562558e-03 0.0000000000000000e+00  -1.0769573060669863e-02 1.5235468232974265e-03 0.0000000000000000e+00  -1.0954987361470544e-02 1.8289589142584330e-04 0.0000000000000000e+00  -1.0886998516680018e-02 -1.1747574403107844e-03 0.0000000000000000e+00  -1.0560759567049919e-02 -2.5289627706510495e-03 0.0000000000000000e+00  -9.9714593254720905e-03 -3.8558786728113154e-03 0.0000000000000000e+00  -9.1162340090039772e-03 -5.1258951275711777e-03 0.0000000000000000e+00  -7.9974451233750053e-03 -6.3021944790775247e-03 0.0000000000000000e+00  -6.6269495671078772e-03 -7.3406848019775305e-03 0.0000000000000000e+00  -5.0294551723798599e-03 -8.1901443736148109e-03 0.0000000000000000e+00  -3.2547062272993369e-03 -8.7969296608038858e-03 0.0000000000000000e+00  -1.3494453640708294e-03 -8.9440327639615323e-03 0.0000000000000000e+00  0.0000000000000000e+00 0.0000000000000000e+00 0.0000000000000000e+00  0.0000000000000000e+00 0.0000000000000000e+00 0.0000000000000000e+00  -1.4678169544265498e-03 1.0512252329835204e-02 0.0000000000000000e+00  -3.5021236390316715e-03 1.0298995844896816e-02 0.0000000000000000e+00  -5.4225571799168173e-03 9.6519863236016242e-03 0.0000000000000000e+00  -7.1673339036523931e-03 8.7398041501513552e-03 0.0000000000000000e+00  -8.6924073369871874e-03 7.6157431862216417e-03 0.0000000000000000e+00  -9.9709497050794096e-03 6.3270809905093626e-03 0.0000000000000000e+00  -1.0988588852440369e-02 4.9152317802847326e-03 0.0000000000000000e+00  -1.1739651548328924e-02 3.4148624251471187e-03 0.0000000000000000e+00  -1.2222764802283428e-02 1.8533383789449422e-03 0.0000000000000000e+00  -1.2436960745081306e-02 2.5196001693221168e-04 0.0000000000000000e+00  -1.2378858611398298e-02 -1.3712999251893271e-03 0.0000000000000000e+00  -1.2041298233601724e-02 -2.9980466551422806e-03 0.0000000000000000e+00  -1.1413736284238380e-02 -4.6051936486647804e-03 0.0000000000000000e+00  -1.0484719741667346e-02 -6.1607912090841576e-03 0.0000000000000000e+00  -9.2466644842234564e-03 -7.6208690158755792e-03 0.0000000000000000e+00  -7.7027481730977650e-03 -8.9281962847764761e-03 0.0000000000000000e+00  -5.8734958939000419e-03 -1.0012155064777319e-02 0.0000000000000000e+00  -3.8146576860211764e-03 -1.0795792337478653e-02 0.0000000000000000e+00  -1.5837585475681896e-03 -1.1001510389351496e-02 0.0000000000000000e+00  0.0000000000000000e+00 0.0000000000000000e+00 0.0000000000000000e+00  0.0000000000000000e+00 0.0000000000000000e+00 0.0000000000000000e+00  -1.7185017074251394e-03 1.2723211363023538e-02 0.0000000000000000e+00  -4.0908105185602011e-03 1.2445847148102379e-02 0.0000000000000000e+00  -6.3142114248728141e-03 1.1629575809106703e-02 0.0000000000000000e+00  -8.3125677418145992e-03 1.0491715706832857e-02 0.0000000000000000e+00  -1.0037330415045604e-02 9.1067186401688205e-03 0.0000000000000000e+00  -1.1464692109316688e-02 7.5396003831733191e-03 0.0000000000000000e+00  -1.2588225387152960e-02 5.8443180260233278e-03 0.0000000000000000e+00  -1.3412181993679150e-02 4.0623263014297932e-03 0.0000000000000000e+00  -1.3944433374675280e-02 2.2223911109487200e-03 0.0000000000000000e+00  -1.4190542544588500e-02 3.4295564490463326e-04 0.0000000000000000e+00  -1.4149527858359124e-02 -1.5635687883223774e-03 0.0000000000000000e+00  -1.3811571194598041e-02 -3.4852105625398861e-03 0.0000000000000000e+00  -1.3157967541287783e-02 -5.4039619117779540e-03 0.0000000000000000e+00  -1.2163891148924721e-02 -7.2889081276677654e-03 0.0000000000000000e+00  -1.0804799266116631e-02 -9.0900013702281870e-03 0.0000000000000000e+00  -9.0670199716672110e-03 -1.0734016301283421e-02 0.0000000000000000e+00  -6.9598660046721441e-03 -1.2122875884355703e-02 0.0000000000000000e+00  -4.5435840344202442e-03 -1.3143746639422912e-02 0.0000000000000000e+00  -1.8904762057179632e-03 -1.3436457390267583e-02 0.0000000000000000e+00  0.0000000000000000e+00 0.0000000000000000e+00 0.0000000000000000e+00  0.0000000000000000e+00 0.0000000000000000e+00 0.0000000000000000e+00  -2.0395971741282515e-03 1.5325831940772404e-02 0.0000000000000000e+00  -4.8397849352026521e-03 1.4956014282254531e-02 0.0000000000000000e+00  -7.4368776242280344e-03 1.3915750600961103e-02 0.0000000000000000e+00  -9.7351878501918069e-03 1.2487623320362583e-02 0.0000000000000000e+00  -1.1682749228157058e-02 1.0778198638296337e-02 0.0000000000000000e+00  -1.3264103348023188e-02 8.8781482512598261e-03 0.0000000000000000e+00  -1.4488045362853287e-02 6.8578930030154580e-03 0.0000000000000000e+00  -1.5375999272168270e-02 4.7659216842226917e-03 0.0000000000000000e+00  -1.5951094623792791e-02 2.6298701560223880e-03 0.0000000000000000e+00  -1.6229691840671148e-02 4.6092101972934884e-04 0.0000000000000000e+00  -1.6215538347724136e-02 -1.7397335557393881e-03 0.0000000000000000e+00  -1.5896295904470382e-02 -3.9730923826021723e-03 0.0000000000000000e+00  -1.5242469599696816e-02 -6.2332504175970456e-03 0.0000000000000000e+00  -1.4209581924625988e-02 -8.4968726541235044e-03 0.0000000000000000e+00  -1.2745525913136007e-02 -1.0711896359413378e-02 0.0000000000000000e+00  -1.0805558391250922e-02 -1.2787418525039814e-02 0.0000000000000000e+00  -8.3732482949703240e-03 -1.4586787792671859e-02 0.0000000000000000e+00  -5.5070895583499624e-03 -1.5940275378441424e-02 0.0000000000000000e+00  -2.2987311671167931e-03 -1.6368603552229303e-02 0.0000000000000000e+00  0.0000000000000000e+00 0.0000000000000000e+00 0.0000000000000000e+00  0.0000000000000000e+00 0.0000000000000000e+00 0.0000000000000000e+00  -2.4584608376598859e-03 1.8432250261324015e-02 0.0000000000000000e+00  -5.8075471649838726e-03 1.7923314690474187e-02 0.0000000000000000e+00  -8.8669545732339081e-03 1.6574431682076705e-02 0.0000000000000000e+00  -1.1514447253200027e-02 1.4760155851626822e-02 0.0000000000000000e+00  -1.3698692783423122e-02 1.2637076219276374e-02 0.0000000000000000e+00  -1.5423095250653548e-02 1.0333087638491206e-02 0.0000000000000000e+00  -1.6724111722940298e-02 7.9395175358044513e-03 0.0000000000000000e+00  -1.7651478263259111e-02 5.5107085181923029e-03 0.0000000000000000e+00  -1.8252065105659812e-02 3.0684762151240198e-03 0.0000000000000000e+00  -1.8558806524323967e-02 6.1014739741355141e-04 0.0000000000000000e+00  -1.8583631446594400e-02 -1.8821061498902408e-03 0.0000000000000000e+00  -1.8312873747932442e-02 -4.4313036114640341e-03 0.0000000000000000e+00  -1.7704344621851494e-02 -7.0542049359236169e-03 0.0000000000000000e+00  -1.6687048199829420e-02 -9.7467718330716911e-03 0.0000000000000000e+00  -1.5166832012283594e-02 -1.2465458011333553e-02 0.0000000000000000e+00  -1.3043938736148753e-02 -1.5104902771676653e-02 0.0000000000000000e+00  -1.0246573868181535e-02 -1.7476514623969763e-02 0.0000000000000000e+00  -6.8131139606690564e-03 -1.9319045687602392e-02 0.0000000000000000e+00  -2.8575180546341230e-03 -1.9970500222929937e-02 0.0000000000000000e+00  0.0000000000000000e+00 0.0000000000000000e+00 0.0000000000000000e+00  0.0000000000000000e+00 0.0000000000000000e+00 0.0000000000000000e+00  -3.0200190595811708e-03 2.2200105717412304e-02 0.0000000000000000e+00  -7.0876484163000016e-03 2.1472843543380360e-02 0.0000000000000000e+00  -1.0722136730785412e-02 1.9680063846990677e-02 0.0000000000000000e+00  -1.3766131252964987e-02 1.7334036715799948e-02 0.0000000000000000e+00  -1.6180340583298394e-02 1.4670704682444290e-02 0.0000000000000000e+00  -1.8007699028965134e-02 1.1871092157320936e-02 0.0000000000000000e+00  -1.9333236214471472e-02 9.0506490969667341e-03 0.0000000000000000e+00  -2.0251272126155448e-02 6.2646333174981835e-03 0.0000000000000000e+00  -2.0843251132900288e-02 3.5205185692358961e-03 0.0000000000000000e+00  -2.1165451579526554e-02 7.9232358917568312e-04 0.0000000000000000e+00  -2.1242408728342835e-02 -1.9666116137428123e-03 0.0000000000000000e+00  -2.1062090006442585e-02 -4.8124379102899512e-03 0.0000000000000000e+00  -2.0570491087060248e-02 -7.7988819509035960e-03 0.0000000000000000e+00  -1.9665682123976465e-02 -1.0960490338001365e-02 0.0000000000000000e+00  -1.8195356362161099e-02 -1.4284761331917003e-02 0.0000000000000000e+00  -1.5966422566573449e-02 -1.7668328302903259e-02 0.0000000000000000e+00  -1.2794847139276339e-02 -2.0862744044649429e-02 0.0000000000000000e+00  -8.6496968343015967e-03 -2.3464470506662498e-02 0.0000000000000000e+00  -3.6574590079898354e-03 -2.4510729471841273e-02 0.0000000000000000e+00  0.0000000000000000e+00 0.0000000000000000e+00 0.0000000000000000e+00  0.0000000000000000e+00 0.0000000000000000e+00 0.0000000000000000e+00  -3.8015812098624621e-03 2.6862877171837576e-02 0.0000000000000000e+00  -8.8356113819471945e-03 2.5776492181044421e-02 0.0000000000000000e+00  -1.3189077723701023e-02 2.3315759933761473e-02 0.0000000000000000e+00  -1.6661756926668703e-02 2.0212408954575330e-02 0.0000000000000000e+00  -1.9256201195773700e-02 1.6829129578772029e-02 0.0000000000000000e+00  -2.1095454561561443