<?xml version="1.0"?>
<VTKFile type="UnstructuredGrid"  version="0.1"  >
<UnstructuredGrid>
<Piece  NumberOfPoints="441" NumberOfCells="800">
<Points>
<DataArray  type="Float64"  NumberOfComponents="3"  format="ascii">0 0 0  0.05 0 0  0.1 0 0  0.15 0 0  0.2 0 0  0.25 0 0  0.3 0 0  0.35 0 0  0.4 0 0  0.45 0 0  0.5 0 0  0.55 0 0  0.6 0 0  0.65 0 0  0.7 0 0  0.75 0 0  0.8 0 0  0.85 0 0  0.9 0 0  0.95 0 0  1 0 0  0 0.05 0  0.05 0.05 0  0.1 0.05 0  0.15 0.05 0  0.2 0.05 0  0.25 0.05 0  0.3 0.05 0  0.35 0.05 0  0.4 0.05 0  0.45 0.05 0  0.5 0.05 0  0.55 0.05 0  0.6 0.05 0  0.65 0.05 0  0.7 0.05 0  0.75 0.05 0  0.8 0.05 0  0.85 0.05 0  0.9 0.05 0  0.95 0.05 0  1 0.05 0  0 0.1 0  0.05 0.1 0  0.1 0.1 0  0.15 0.1 0  0.2 0.1 0  0.25 0.1 0  0.3 0.1 0  0.35 0.1 0  0.4 0.1 0  0.45 0.1 0  0.5 0.1 0  0.55 0.1 0  0.6 0.1 0  0.65 0.1 0  0.7 0.1 0  0.75 0.1 0  0.8 0.1 0  0.85 0.1 0  0.9 0.1 0  0.95 0.1 0  1 0.1 0  0 0.15 0  0.05 0.15 0  0.1 0.15 0  0.15 0.15 0  0.2 0.15 0  0.25 0.15 0  0.3 0.15 0  0.35 0.15 0  0.4 0.15 0  0.45 0.15 0  0.5 0.15 0  0.55 0.15 0  0.6 0.15 0  0.65 0.15 0  0.7 0.15 0  0.75 0.15 0  0.8 0.15 0  0.85 0.15 0  0.9 0.15 0  0.95 0.15 0  1 0.15 0  0 0.2 0  0.05 0.2 0  0.1 0.2 0  0.15 0.2 0  0.2 0.2 0  0.25 0.2 0  0.3 0.2 0  0.35 0.2 0  0.4 0.2 0  0.45 0.2 0  0.5 0.2 0  0.55 0.2 0  0.6 0.2 0  0.65 0.2 0  0.7 0.2 0  0.75 0.2 0  0.8 0.2 0  0.85 0.2 0  0.9 0.2 0  0.95 0.2 0  1 0.2 0  0 0.25 0  0.05 0.25 0  0.1 0.25 0  0.15 0.25 0  0.2 0.25 0  0.25 0.25 0  0.3 0.25 0  0.35 0.25 0  0.4 0.25 0  0.45 0.25 0  0.5 0.25 0  0.55 0.25 0  0.6 0.25 0  0.65 0.25 0  0.7 0.25 0  0.75 0.25 0  0.8 0.25 0  0.85 0.25 0  0.9 0.25 0  0.95 0.25 0  1 0.25 0  0 0.3 0  0.05 0.3 0  0.1 0.3 0  0.15 0.3 0  0.2 0.3 0  0.25 0.3 0  0.3 0.3 0  0.35 0.3 0  0.4 0.3 0  0.45 0.3 0  0.5 0.3 0  0.55 0.3 0  0.6 0.3 0  0.65 0.3 0  0.7 0.3 0  0.75 0.3 0  0.8 0.3 0  0.85 0.3 0  0.9 0.3 0  0.95 0.3 0  1 0.3 0  0 0.35 0  0.05 0.35 0  0.1 0.35 0  0.15 0.35 0  0.2 0.35 0  0.25 0.35 0  0.3 0.35 0  0.35 0.35 0  0.4 0.35 0  0.45 0.35 0  0.5 0.35 0  0.55 0.35 0  0.6 0.35 0  0.65 0.35 0  0.7 0.35 0  0.75 0.35 0  0.8 0.35 0  0.85 0.35 0  0.9 0.35 0  0.95 0.35 0  1 0.35 0  0 0.4 0  0.05 0.4 0  0.1 0.4 0  0.15 0.4 0  0.2 0.4 0  0.25 0.4 0  0.3 0.4 0  0.35 0.4 0  0.4 0.4 0  0.45 0.4 0  0.5 0.4 0  0.55 0.4 0  0.6 0.4 0  0.65 0.4 0  0.7 0.4 0  0.75 0.4 0  0.8 0.4 0  0.85 0.4 0  0.9 0.4 0  0.95 0.4 0  1 0.4 0  0 0.45 0  0.05 0.45 0  0.1 0.45 0  0.15 0.45 0  0.2 0.45 0  0.25 0.45 0  0.3 0.45 0  0.35 0.45 0  0.4 0.45 0  0.45 0.45 0  0.5 0.45 0  0.55 0.45 0  0.6 0.45 0  0.65 0.45 0  0.7 0.45 0  0.75 0.45 0  0.8 0.45 0  0.85 0.45 0  0.9 0.45 0  0.95 0.45 0  1 0.45 0  0 0.5 0  0.05 0.5 0  0.1 0.5 0  0.15 0.5 0  0.2 0.5 0  0.25 0.5 0  0.3 0.5 0  0.35 0.5 0  0.4 0.5 0  0.45 0.5 0  0.5 0.5 0  0.55 0.5 0  0.6 0.5 0  0.65 0.5 0  0.7 0.5 0  0.75 0.5 0  0.8 0.5 0  0.85 0.5 0  0.9 0.5 0  0.95 0.5 0  1 0.5 0  0 0.55 0  0.05 0.55 0  0.1 0.55 0  0.15 0.55 0  0.2 0.55 0  0.25 0.55 0  0.3 0.55 0  0.35 0.55 0  0.4 0.55 0  0.45 0.55 0  0.5 0.55 0  0.55 0.55 0  0.6 0.55 0  0.65 0.55 0  0.7 0.55 0  0.75 0.55 0  0.8 0.55 0  0.85 0.55 0  0.9 0.55 0  0.95 0.55 0  1 0.55 0  0 0.6 0  0.05 0.6 0  0.1 0.6 0  0.15 0.6 0  0.2 0.6 0  0.25 0.6 0  0.3 0.6 0  0.35 0.6 0  0.4 0.6 0  0.45 0.6 0  0.5 0.6 0  0.55 0.6 0  0.6 0.6 0  0.65 0.6 0  0.7 0.6 0  0.75 0.6 0  0.8 0.6 0  0.85 0.6 0  0.9 0.6 0  0.95 0.6 0  1 0.6 0  0 0.65 0  0.05 0.65 0  0.1 0.65 0  0.15 0.65 0  0.2 0.65 0  0.25 0.65 0  0.3 0.65 0  0.35 0.65 0  0.4 0.65 0  0.45 0.65 0  0.5 0.65 0  0.55 0.65 0  0.6 0.65 0  0.65 0.65 0  0.7 0.65 0  0.75 0.65 0  0.8 0.65 0  0.85 0.65 0  0.9 0.65 0  0.95 0.65 0  1 0.65 0  0 0.7 0  0.05 0.7 0  0.1 0.7 0  0.15 0.7 0  0.2 0.7 0  0.25 0.7 0  0.3 0.7 0  0.35 0.7 0  0.4 0.7 0  0.45 0.7 0  0.5 0.7 0  0.55 0.7 0  0.6 0.7 0  0.65 0.7 0  0.7 0.7 0  0.75 0.7 0  0.8 0.7 0  0.85 0.7 0  0.9 0.7 0  0.95 0.7 0  1 0.7 0  0 0.75 0  0.05 0.75 0  0.1 0.75 0  0.15 0.75 0  0.2 0.75 0  0.25 0.75 0  0.3 0.75 0  0.35 0.75 0  0.4 0.75 0  0.45 0.75 0  0.5 0.75 0  0.55 0.75 0  0.6 0.75 0  0.65 0.75 0  0.7 0.75 0  0.75 0.75 0  0.8 0.75 0  0.85 0.75 0  0.9 0.75 0  0.95 0.75 0  1 0.75 0  0 0.8 0  0.05 0.8 0  0.1 0.8 0  0.15 0.8 0  0.2 0.8 0  0.25 0.8 0  0.3 0.8 0  0.35 0.8 0  0.4 0.8 0  0.45 0.8 0  0.5 0.8 0  0.55 0.8 0  0.6 0.8 0  0.65 0.8 0  0.7 0.8 0  0.75 0.8 0  0.8 0.8 0  0.85 0.8 0  0.9 0.8 0  0.95 0.8 0  1 0.8 0  0 0.85 0  0.05 0.85 0  0.1 0.85 0  0.15 0.85 0  0.2 0.85 0  0.25 0.85 0  0.3 0.85 0  0.35 0.85 0  0.4 0.85 0  0.45 0.85 0  0.5 0.85 0  0.55 0.85 0  0.6 0.85 0  0.65 0.85 0  0.7 0.85 0  0.75 0.85 0  0.8 0.85 0  0.85 0.85 0  0.9 0.85 0  0.95 0.85 0  1 0.85 0  0 0.9 0  0.05 0.9 0  0.1 0.9 0  0.15 0.9 0  0.2 0.9 0  0.25 0.9 0  0.3 0.9 0  0.35 0.9 0  0.4 0.9 0  0.45 0.9 0  0.5 0.9 0  0.55 0.9 0  0.6 0.9 0  0.65 0.9 0  0.7 0.9 0  0.75 0.9 0  0.8 0.9 0  0.85 0.9 0  0.9 0.9 0  0.95 0.9 0  1 0.9 0  0 0.95 0  0.05 0.95 0  0.1 0.95 0  0.15 0.95 0  0.2 0.95 0  0.25 0.95 0  0.3 0.95 0  0.35 0.95 0  0.4 0.95 0  0.45 0.95 0  0.5 0.95 0  0.55 0.95 0  0.6 0.95 0  0.65 0.95 0  0.7 0.95 0  0.75 0.95 0  0.8 0.95 0  0.85 0.95 0  0.9 0.95 0  0.95 0.95 0  1 0.95 0  0 1 0  0.05 1 0  0.1 1 0  0.15 1 0  0.2 1 0  0.25 1 0  0.3 1 0  0.35 1 0  0.4 1 0  0.45 1 0  0.5 1 0  0.55 1 0  0.6 1 0  0.65 1 0  0.7 1 0  0.75 1 0  0.8 1 0  0.85 1 0  0.9 1 0  0.95 1 0  1 1 0  </DataArray>
</Points>
<Cells>
[...]
<PointData  Vectors="f_137"> 
<DataArray  type="Float64"  Name="f_137"  NumberOfComponents="3" format="ascii">0.0000000000000000e+00 0.0000000000000000e+00 0.0000000000000000e+00  0.0000000000000000e+00 0.0000000000000000e+00 0.0000000000000000e+00  0.0000000000000000e+00 0.0000000000000000e+00 0.0000000000000000e+00  0.0000000000000000e+00 0.0000000000000000e+00 0.0000000000000000e+00  0.0000000000000000e+00 0.0000000000000000e+00 0.0000000000000000e+00  0.0000000000000000e+00 0.0000000000000000e+00 0.0000000000000000e+00  0.0000000000000000e+00 0.0000000000000000e+00 0.0000000000000000e+00  0.0000000000000000e+00 0.0000000000000000e+00 0.0000000000000000e+00  0.0000000000000000e+00 0.0000000000000000e+00 0.0000000000000000e+00  0.0000000000000000e+00 0.0000000000000000e+00 0.0000000000000000e+00  0.0000000000000000e+00 0.0000000000000000e+00 0.0000000000000000e+00  0.0000000000000000e+00 0.0000000000000000e+00 0.0000000000000000e+00  0.0000000000000000e+00 0.0000000000000000e+00 0.0000000000000000e+00  0.0000000000000000e+00 0.0000000000000000e+00 0.0000000000000000e+00  0.0000000000000000e+00 0.0000000000000000e+00 0.0000000000000000e+00  0.0000000000000000e+00 0.0000000000000000e+00 0.0000000000000000e+00  0.0000000000000000e+00 0.0000000000000000e+00 0.0000000000000000e+00  0.0000000000000000e+00 0.0000000000000000e+00 0.0000000000000000e+00  0.0000000000000000e+00 0.0000000000000000e+00 0.0000000000000000e+00  0.0000000000000000e+00 0.0000000000000000e+00 0.0000000000000000e+00  0.0000000000000000e+00 0.0000000000000000e+00 0.0000000000000000e+00  0.0000000000000000e+00 0.0000000000000000e+00 0.0000000000000000e+00  -7.7155701858494530e-04 7.6292219699341331e-04 0.0000000000000000e+00  -1.8567125152910875e-03 7.4208302049649203e-04 0.0000000000000000e+00  -2.8899704012207710e-03 6.9827665405326181e-04 0.0000000000000000e+00  -3.8478293150550152e-03 6.3641393602567717e-04 0.0000000000000000e+00  -4.7056985198087233e-03 5.5833763541536432e-04 0.0000000000000000e+00  -5.4415854946711414e-03 4.6620047548095133e-04 0.0000000000000000e+00  -6.0371900674632177e-03 3.6236220954039098e-04 0.0000000000000000e+00  -6.4777189599849547e-03 2.4931820424768929e-04 0.0000000000000000e+00  -6.7520665914418488e-03 1.2965951176487282e-04 0.0000000000000000e+00  -6.8529047636301165e-03 6.0536482909425346e-06 0.0000000000000000e+00  -6.7767631083858150e-03 -1.1873875777645591e-04 0.0000000000000000e+00  -6.5241475147457054e-03 -2.4183198091682774e-04 0.0000000000000000e+00  -6.0997054617989979e-03 -3.6019106553831983e-04 0.0000000000000000e+00  -5.5124151104168628e-03 -4.7064107252797939e-04 0.0000000000000000e+00  -4.7757254580344200e-03 -5.6992844339821770e-04 0.0000000000000000e+00  -3.9075620776926907e-03 -6.5475575916085899e-04 0.0000000000000000e+00  -2.9304306289548053e-03 -7.2156433312969414e-04 0.0000000000000000e+00  -1.8734136938482020e-03 -7.6852201600384386e-04 0.0000000000000000e+00  -7.5693596120086763e-04 -7.5427415174715063e-04 0.0000000000000000e+00  0.0000000000000000e+00 0.0000000000000000e+00 0.0000000000000000e+00  0.0000000000000000e+00 0.0000000000000000e+00 0.0000000000000000e+00  -8.0004913630462584e-04 1.8777702771164155e-03 0.0000000000000000e+00  -1.9342087206593497e-03 1.8379307134034140e-03 0.0000000000000000e+00  -3.0205983756893097e-03 1.7341529316039137e-03 0.0000000000000000e+00  -4.0290504304272504e-03 1.5817784340797364e-03 0.0000000000000000e+00  -4.9322390449782786e-03 1.3891329229935084e-03 0.0000000000000000e+00  -5.7076166291018301e-03 1.1617258113479146e-03 0.0000000000000000e+00  -6.3360999693086503e-03 9.0544074704715220e-04 0.0000000000000000e+00  -6.8023291704849059e-03 6.2650217524077710e-04 0.0000000000000000e+00  -7.0947565230933931e-03 3.3130338936425001e-04 0.0000000000000000e+00  -7.2056650499530486e-03 2.6369600558166038e-05 0.0000000000000000e+00  -7.1312103209626885e-03 -2.8159024714433182e-04 0.0000000000000000e+00  -6.8715360175378862e-03 -5.8558639623823008e-04 0.0000000000000000e+00  -6.4309794381630387e-03 -8.7826334941298976e-04 0.0000000000000000e+00  -5.8183417107638491e-03 -1.1518904756695749e-03 0.0000000000000000e+00  -5.0471635701523267e-03 -1.3984846596087107e-03 0.0000000000000000e+00  -4.1359530801920036e-03 -1.6100060502195698e-03 0.0000000000000000e+00  -3.1075818439251289e-03 -1.7780347160239781e-03 0.0000000000000000e+00  -1.9931441871144438e-03 -1.8930612323850417e-03 0.0000000000000000e+00  -8.2270800677555647e-04 -1.9023340989344250e-03 0.0000000000000000e+00  0.0000000000000000e+00 0.0000000000000000e+00 0.0000000000000000e+00  0.0000000000000000e+00 0.0000000000000000e+00 0.0000000000000000e+00  -8.4642837211688644e-04 3.0387289658870527e-03 0.0000000000000000e+00  -2.0484989543085919e-03 2.9839422623967604e-03 0.0000000000000000e+00  -3.1975012619265895e-03 2.8138521445722469e-03 0.0000000000000000e+00  -4.2636158691950216e-03 2.5660914165143095e-03 0.0000000000000000e+00  -5.2175061863145716e-03 2.2528855963606514e-03 0.0000000000000000e+00  -6.0358487555382898e-03 1.8836964039004207e-03 0.0000000000000000e+00  -6.6990023020282634e-03 1.4682328629154668e-03 0.0000000000000000e+00  -7.1913494832690156e-03 1.0165968344997571e-03 0.0000000000000000e+00  -7.5012042244188308e-03 5.3902264750332646e-04 0.0000000000000000e+00  -7.6206870948799634e-03 4.5840010048336147e-05 0.0000000000000000e+00  -7.5456685943246235e-03 -4.5239592120525376e-04 0.0000000000000000e+00  -7.2758544570288410e-03 -9.4468282002231597e-04 0.0000000000000000e+00  -6.8150464945823802e-03 -1.4193601109541566e-03 0.0000000000000000e+00  -6.1715560949350805e-03 -1.8640240733950012e-03 0.0000000000000000e+00  -5.3586913652119315e-03 -2.2656775702643950e-03 0.0000000000000000e+00  -4.3951911513335955e-03 -2.6110459175281799e-03 0.0000000000000000e+00  -3.3047996357379334e-03 -2.8861715543696763e-03 0.0000000000000000e+00  -2.1211247349341676e-03 -3.0758435330805745e-03 0.0000000000000000e+00  -8.7312087483115393e-04 -3.1005052963116258e-03 0.0000000000000000e+00  0.0000000000000000e+00 0.0000000000000000e+00 0.0000000000000000e+00  0.0000000000000000e+00 0.0000000000000000e+00 0.0000000000000000e+00  -9.1569371913972062e-04 4.2807329460439114e-03 0.0000000000000000e+00  -2.2140101682221348e-03 4.2102614247569907e-03 0.0000000000000000e+00  -3.4547298376995943e-03 3.9690072489730523e-03 0.0000000000000000e+00  -4.6040755775107224e-03 3.6181174757157191e-03 0.0000000000000000e+00  -5.6308823447286912e-03 3.1752648737737041e-03 0.0000000000000000e+00  -6.5106203695563386e-03 2.6543636656288028e-03 0.0000000000000000e+00  -7.2230872325301882e-03 2.0694048684314799e-03 0.0000000000000000e+00  -7.7525267708105907e-03 1.4346038204280699e-03 0.0000000000000000e+00  -8.0872668298394151e-03 7.6407403969837469e-04 0.0000000000000000e+00  -8.2193435121325487e-03 7.1816332768936692e-05 0.0000000000000000e+00  -8.1442638153766539e-03 -6.2799855935056364e-04 0.0000000000000000e+00  -7.8610253953416542e-03 -1.3205790169892942e-03 0.0000000000000000e+00  -7.3724554198024098e-03 -1.9900572372149516e-03 0.0000000000000000e+00  -6.6858521595002073e-03 -2.6192181070443586e-03 0.0000000000000000e+00  -5.8138260403783884e-03 -3.1895989537824997e-03 0.0000000000000000e+00  -4.7751582508339767e-03 -3.6819287025407319e-03 0.0000000000000000e+00  -3.5946677283780716e-03 -4.0757755782873184e-03 0.0000000000000000e+00  -2.3090429617101710e-03 -4.3485343531544313e-03 0.0000000000000000e+00  -9.5005196152083988e-04 -4.3914211781965577e-03 0.0000000000000000e+00  0.0000000000000000e+00 0.0000000000000000e+00 0.0000000000000000e+00  0.0000000000000000e+00 0.0000000000000000e+00 0.0000000000000000e+00  -1.0103358148487343e-03 5.6376041777400788e-03 0.0000000000000000e+00  -2.4403553549517745e-03 5.5478822953777375e-03 0.0000000000000000e+00  -3.8053431955682605e-03 5.2268141344705005e-03 0.0000000000000000e+00  -5.0668347805113579e-03 4.7613274785964048e-03 0.0000000000000000e+00  -6.1910681942823073e-03 4.1755760064620517e-03 0.0000000000000000e+00  -7.1521085439222734e-03 3.4888654447524470e-03 0.0000000000000000e+00  -7.9293696662127502e-03 2.7201402232247800e-03 0.0000000000000000e+00  -8.5073367370267477e-03 1.8880811872454960e-03 0.0000000000000000e+00  -8.8747555224890015e-03 1.0106722205723009e-03 0.0000000000000000e+00  -9.0238391406790037e-03 1.0528107225685664e-04 0.0000000000000000e+00  -8.9497238294356657e-03 -8.1078540513836975e-04 0.0000000000000000e+00  -8.6503585530586791e-03 -1.7194353857176853e-03 0.0000000000000000e+00  -8.1269360248502950e-03 -2.6009002827090850e-03 0.0000000000000000e+00  -7.3848703432758539e-03 -3.4330871880390865e-03 0.0000000000000000e+00  -6.4352008468425703e-03 -4.1914846573604626e-03 0.0000000000000000e+00  -5.2961653105229271e-03 -4.8496760664282377e-03 0.0000000000000000e+00  -3.9936255540424428e-03 -5.3790651508901725e-03 0.0000000000000000e+00  -2.5684959287131269e-03 -5.7476715038177664e-03 0.0000000000000000e+00  -1.0566183798836029e-03 -5.8130682339032356e-03 0.0000000000000000e+00  0.0000000000000000e+00 0.0000000000000000e+00 0.0000000000000000e+00  0.0000000000000000e+00 0.0000000000000000e+00 0.0000000000000000e+00  -1.1340350938849916e-03 7.1470872735064908e-03 0.0000000000000000e+00  -2.7361086931981409e-03 7.0334816111266010e-03 0.0000000000000000e+00  -4.2621796037466261e-03 6.6203866006383496e-03 0.0000000000000000e+00  -5.6676390320554307e-03 6.0240777858093205e-03 0.0000000000000000e+00  -6.9154231320262289e-03 5.2770134319749668e-03 0.0000000000000000e+00  -7.9782268940978545e-03 4.4053799893870914e-03 0.0000000000000000e+00  -8.8356448497888731e-03 3.4341095010001726e-03 0.0000000000000000e+00  -9.4732427716034805e-03 2.3868180256023204e-03 0.0000000000000000e+00  -9.8810177891943372e-03 1.2852547996294913e-03 0.0000000000000000e+00  -1.0051936593668842e-02 1.4956829546460142e-04 0.0000000000000000e+00  -9.9808943187520236e-03 -1.0006850119954223e-03 0.0000000000000000e+00  -9.6643626503193913e-03 -2.1450543391750396e-03 0.0000000000000000e+00  -9.1009030855206726e-03 -3.2605729275636789e-03 0.0000000000000000e+00  -8.2926032597607051e-03 -4.3204214776819882e-03 0.0000000000000000e+00  -7.2473288555006243e-03 -5.2933660064132665e-03 0.0000000000000000e+00  -5.9814598421714278e-03 -6.1441973392800499e-03 0.0000000000000000e+00  -4.5213703349329714e-03 -6.8335706632212815e-03 0.0000000000000000e+00  -2.9132257918272572e-03 -7.3169352447842919e-03 0.0000000000000000e+00  -1.1987542076410099e-03 -7.4112682199800146e-03 0.0000000000000000e+00  0.0000000000000000e+00 0.0000000000000000e+00 0.0000000000000000e+00  0.0000000000000000e+00 0.0000000000000000e+00 0.0000000000000000e+00  -1.2920948698744502e-03 8.8534575318639265e-03 0.0000000000000000e+00  -3.1133808569986259e-03 8.7089196582860393e-03 0.0000000000000000e+00  -4.8426721327537265e-03 8.1863165667113002e-03 0.0000000000000000e+00  -6.4272419238003767e-03 7.4365097868767131e-03 0.0000000000000000e+00  -7.8260085758460433e-03 6.5030636941701709e-03 0.0000000000000000e+00  -9.0107587126301951e-03 5.4213388362539866e-03 0.0000000000000000e+00  -9.9625038963460158e-03 4.2237824742927862e-03 0.0000000000000000e+00  -1.0669483091791493e-02 2.9395520068779121e-03 0.0000000000000000e+00  -1.1124464464859350e-02 1.5938585687727551e-03 0.0000000000000000e+00  -1.1322254944126050e-02 2.0857784638449555e-04 0.0000000000000000e+00  -1.1257890352009572e-02 -1.1960271338827648e-03 0.0000000000000000e+00  -1.0925863070340521e-02 -2.5988386802028684e-03 0.0000000000000000e+00  -1.0320651290352780e-02 -3.9751131998250200e-03 0.0000000000000000e+00  -9.4387165612996871e-03 -5.2939649649363903e-03 0.0000000000000000e+00  -8.2819604024164783e-03 -6.5168359625012579e-03 0.0000000000000000e+00  -6.8622993540798467e-03 -7.5974979996272576e-03 0.0000000000000000e+00  -5.2050607550681704e-03 -8.4819375394862943e-03 0.0000000000000000e+00  -3.3625164150796923e-03 -9.1078954890173609e-03 0.0000000000000000e+00  -1.3847671757191806e-03 -9.2417934159684037e-03 0.0000000000000000e+00  0.0000000000000000e+00 0.0000000000000000e+00 0.0000000000000000e+00  0.0000000000000000e+00 0.0000000000000000e+00 0.0000000000000000e+00  -1.4922249723886155e-03 1.0809743639945349e-02 0.0000000000000000e+00  -3.5896664856628247e-03 1.0623436546878615e-02 0.0000000000000000e+00  -5.5715451129951825e-03 9.9661885063426717e-03 0.0000000000000000e+00  -7.3742982202857701e-03 9.0310832582744301e-03 0.0000000000000000e+00  -8.9522596836702200e-03 7.8772008641276453e-03 0.0000000000000000e+00  -1.0277528794655599e-02 6.5525983442186152e-03 0.0000000000000000e+00  -1.1334894827465953e-02 5.0994473444115245e-03 0.0000000000000000e+00  -1.2118054644666780e-02 3.5531677271923145e-03 0.0000000000000000e+00  -1.2625117430851629e-02 1.9417629227391235e-03 0.0000000000000000e+00  -1.2854598967703338e-02 2.8705002738626091e-04 0.0000000000000000e+00  -1.2802491238665422e-02 -1.3925409265952381e-03 0.0000000000000000e+00  -1.2460807051605053e-02 -3.0780877983303204e-03 0.0000000000000000e+00  -1.1817946248528747e-02 -4.7457091218499805e-03 0.0000000000000000e+00  -1.0861244484122543e-02 -6.3621460797357214e-03 0.0000000000000000e+00  -9.5819842690944845e-03 -7.8813845671900119e-03 0.0000000000000000e+00  -7.9827567473039034e-03 -9.2433900257076831e-03 0.0000000000000000e+00  -6.0842614417169648e-03 -1.0373615147947188e-02 0.0000000000000000e+00  -3.9451001302342496e-03 -1.1183770026011510e-02 0.0000000000000000e+00  -1.6270870281794956e-03 -1.1374707966544946e-02 0.0000000000000000e+00  0.0000000000000000e+00 0.0000000000000000e+00 0.0000000000000000e+00  0.0000000000000000e+00 0.0000000000000000e+00 0.0000000000000000e+00  -1.7458599832671159e-03 1.3081811681021498e-02 0.0000000000000000e+00  -4.1905493295236766e-03 1.2836690195713653e-02 0.0000000000000000e+00  -6.4842100601563120e-03 1.2007979198234844e-02 0.0000000000000000e+00  -8.5486470925472992e-03 1.0842347853676873e-02 0.0000000000000000e+00  -1.0333467244252050e-02 9.4214038631828499e-03 0.0000000000000000e+00  -1.1813729756747313e-02 7.8112755987079759e-03 0.0000000000000000e+00  -1.2982237766043821e-02 6.0669495382945646e-03 0.0000000000000000e+00  -1.3842774001096915e-02 4.2308257572683007e-03 0.0000000000000000e+00  -1.4402891032674789e-02 2.3323715635275694e-03 0.0000000000000000e+00  -1.4667806209395619e-02 3.9046117216408051e-04 0.0000000000000000e+00  -1.4635975628368901e-02 -1.5822670170667077e-03 0.0000000000000000e+00  -1.4296626037755191e-02 -3.5736528989826475e-03 0.0000000000000000e+00  -1.3629582709955391e-02 -5.5652558633958495e-03 0.0000000000000000e+00  -1.2608044801047134e-02 -7.5250783020099831e-03 0.0000000000000000e+00  -1.1205237169191822e-02 -9.4008846402114637e-03 0.0000000000000000e+00  -9.4056814781665089e-03 -1.1115895119759555e-02 0.0000000000000000e+00  -7.2178378847579782e-03 -1.2566487833089153e-02 0.0000000000000000e+00  -4.7049664486345164e-03 -1.3624632537124360e-02 0.0000000000000000e+00  -1.9449607484000738e-03 -1.3901954921160224e-02 0.0000000000000000e+00  0.0000000000000000e+00 0.0000000000000000e+00 0.0000000000000000e+00  0.0000000000000000e+00 0.0000000000000000e+00 0.0000000000000000e+00  -2.0704094926100635e-03 1.5754652485805720e-02 0.0000000000000000e+00  -4.9543520952138606e-03 1.5423183135509447e-02 0.0000000000000000e+00  -7.6324131153682213e-03 1.4367716379966559e-02 0.0000000000000000e+00  -1.0006463953534939e-02 1.2905937387324276e-02 0.0000000000000000e+00  -1.2022396771016278e-02 1.1153265640140686e-02 0.0000000000000000e+00  -1.3663574999342037e-02 9.2019932256581106e-03 0.0000000000000000e+00  -1.4938184975965359e-02 7.1239841314497069e-03 0.0000000000000000e+00  -1.5867489728035575e-02 4.9689547471049042e-03 0.0000000000000000e+00  -1.6474679804583947e-02 2.7653256604680543e-03 0.0000000000000000e+00  -1.6776134270528081e-02 5.2456166579676580e-04 0.0000000000000000e+00  -1.6775286124303505e-02 -1.7523102543693496e-03 0.0000000000000000e+00  -1.6458847024013814e-02 -4.0667189998280454e-03 0.0000000000000000e+00  -1.5795451665135705e-02 -6.4131004303388016e-03 0.0000000000000000e+00  -1.4737644411632781e-02 -8.7677601675834431e-03 0.0000000000000000e+00  -1.3229386528989502e-02 -1.1076753887731213e-02 0.0000000000000000e+00  -1.1221922856925016e-02 -1.3245011002923733e-02 0.0000000000000000e+00  -8.6957074940775658e-03 -1.5128124520448309e-02 0.0000000000000000e+00  -5.7117844142295432e-03 -1.6535400670154504e-02 0.0000000000000000e+00  -2.3691562259430731e-03 -1.6949805875660022e-02 0.0000000000000000e+00  0.0000000000000000e+00 0.0000000000000000e+00 0.0000000000000000e+00  0.0000000000000000e+00 0.0000000000000000e+00 0.0000000000000000e+00  -2.4932893158083045e-03 1.8942515758887116e-02 0.0000000000000000e+00  -5.9402419446605362e-03 1.8478959844078994e-02 0.0000000000000000e+00  -9.0936792106647239e-03 1.7111238585217486e-02 0.0000000000000000e+00  -1.1828390689537826e-02 1.5255914051270412e-02 0.0000000000000000e+00  -1.4090503390860489e-02 1.3080597166793037e-02 0.0000000000000000e+00  -1.5882232633606275e-02 1.0715587773632922e-02 0.0000000000000000e+00  -1.7239735084906650e-02 8.2542915153993156e-03 0.0000000000000000e+00  -1.8213117824162857e-02 5.7527053858030409e-03 0.0000000000000000e+00  -1.8849960116307813e-02 3.2335638214284366e-03 0.0000000000000000e+00  -1.9183871998759049e-02 6.9427482975353892e-04 0.0000000000000000e+00  -1.9227023027149730e-02 -1.8837204625370965e-03 0.0000000000000000e+00  -1.8965101724487697e-02 -4.5248367622215142e-03 0.0000000000000000e+00  -1.8353845148334557e-02 -7.2475209899702147e-03 0.0000000000000000e+00  -1.7318186336691001e-02 -1.0048985129230234e-02 0.0000000000000000e+00  -1.5757673359569607e-02 -1.2885187716542328e-02 0.0000000000000000e+00  -1.3564719561657874e-02 -1.5646814272542241e-02 0.0000000000000000e+00  -1.0659451575745372e-02 -1.8134628894398652e-02 0.0000000000000000e+00  -7.0805278326131395e-03 -2.0057364663640723e-02 0.0000000000000000e+00  -2.9514648478551624e-03 -2.0700612647259472e-02 0.0000000000000000e+00  0.0000000000000000e+00 0.0000000000000000e+00 0.0000000000000000e+00  0.0000000000000000e+00 0.0000000000000000e+00 0.0000000000000000e+00  -3.0594974506567289e-03 2.2805779151936819e-02 0.0000000000000000e+00  -7.2427894113018376e-03 2.2131985681944868e-02 0.0000000000000000e+00  -1.0987395197192943e-02 2.0315354960225105e-02 0.0000000000000000e+00  -1.4132263658590122e-02 1.7918601735482886e-02 0.0000000000000000e+00  -1.6635014661812303e-02 1.5191560310363115e-02 0.0000000000000000e+00  -1.8537459464673823e-02 1.2318867881539108e-02 0.0000000000000000e+00  -1.9924876114835087e-02 9.4190219428830161e-03 0.0000000000000000e+00  -2.0892821890080859e-02 6.5495762487112362e-03 0.0000000000000000e+00  -2.1524473564833543e-02 3.7191435377752929e-03 0.0000000000000000e+00  -2.1877841879035312e-02 9.0159788191577464e-04 0.0000000000000000e+00  -2.1978706143608532e-02 -1.9511583519442937e-03 0.0000000000000000e+00  -2.1815215356777412e-02 -4.8979425622676315e-03 0.0000000000000000e+00  -2.1331650390071365e-02 -7.9961869110120667e-03 0.0000000000000000e+00  -2.0421464238020971e-02 -1.1284756454652841e-02 0.0000000000000000e+00  -1.8923465282268057e-02 -1.4754385981972722e-02 0.0000000000000000e+00  -1.6629757390506199e-02 -1.8299756744071475e-02 0.0000000000000000e+00  -1.3338277025753792e-02 -2.1658558107584183e-02 0.0000000000000000e+00  -9.0121768616495210e-03 -2.4384399821113224e-02 0.0000000000000000e+00  -3.7889781312230144e-03 -2.5439498606023108e-02 0.0000000000000000e+00  0.0000000000000000e+00 0.0000000000000000e+00 0.0000000000000000e+00  0.0000000000000000e+00 0.0000000000000000e+00 0.0000000000000000e+00  -3.8464435721803571e-03 2.7581513636916778e-02 0.0000000000000000e+00  -9.0190846481452980e-03 2.6558062449145919e-02 0.0000000000000000e+00  -1.3502794312763283e-02 2.4066160044861343e-02 0.0000000000000000e+00  -1.7092664711778210e-02 2.0898935342714173e-02 0.0000000000000000e+00  -1.9787416509785400e-02 1.7436780934806682e-02 0.0000000000000000e+00  -2.1709203013630458