<?xml version="1.0"?>
<VTKFile type="UnstructuredGrid"  version="0.1"  >
<UnstructuredGrid>
<Piece  NumberOfPoints="441" NumberOfCells="800">
<Points>
<DataArray  type="Float64"  NumberOfComponents="3"  format="ascii">0 0 0  0.05 0 0  0.1 0 0  0.15 0 0  0.2 0 0  0.25 0 0  0.3 0 0  0.35 0 0  0.4 0 0  0.45 0 0  0.5 0 0  0.55 0 0  0.6 0 0  0.65 0 0  0.7 0 0  0.75 0 0  0.8 0 0  0.85 0 0  0.9 0 0  0.95 0 0  1 0 0  0 0.05 0  0.05 0.05 0  0.1 0.05 0  0.15 0.05 0  0.2 0.05 0  0.25 0.05 0  0.3 0.05 0  0.35 0.05 0  0.4 0.05 0  0.45 0.05 0  0.5 0.05 0  0.55 0.05 0  0.6 0.05 0  0.65 0.05 0  0.7 0.05 0  0.75 0.05 0  0.8 0.05 0  0.85 0.05 0  0.9 0.05 0  0.95 0.05 0  1 0.05 0  0 0.1 0  0.05 0.1 0  0.1 0.1 0  0.15 0.1 0  0.2 0.1 0  0.25 0.1 0  0.3 0.1 0  0.35 0.1 0  0.4 0.1 0  0.45 0.1 0  0.5 0.1 0  0.55 0.1 0  0.6 0.1 0  0.65 0.1 0  0.7 0.1 0  0.75 0.1 0  0.8 0.1 0  0.85 0.1 0  0.9 0.1 0  0.95 0.1 0  1 0.1 0  0 0.15 0  0.05 0.15 0  0.1 0.15 0  0.15 0.15 0  0.2 0.15 0  0.25 0.15 0  0.3 0.15 0  0.35 0.15 0  0.4 0.15 0  0.45 0.15 0  0.5 0.15 0  0.55 0.15 0  0.6 0.15 0  0.65 0.15 0  0.7 0.15 0  0.75 0.15 0  0.8 0.15 0  0.85 0.15 0  0.9 0.15 0  0.95 0.15 0  1 0.15 0  0 0.2 0  0.05 0.2 0  0.1 0.2 0  0.15 0.2 0  0.2 0.2 0  0.25 0.2 0  0.3 0.2 0  0.35 0.2 0  0.4 0.2 0  0.45 0.2 0  0.5 0.2 0  0.55 0.2 0  0.6 0.2 0  0.65 0.2 0  0.7 0.2 0  0.75 0.2 0  0.8 0.2 0  0.85 0.2 0  0.9 0.2 0  0.95 0.2 0  1 0.2 0  0 0.25 0  0.05 0.25 0  0.1 0.25 0  0.15 0.25 0  0.2 0.25 0  0.25 0.25 0  0.3 0.25 0  0.35 0.25 0  0.4 0.25 0  0.45 0.25 0  0.5 0.25 0  0.55 0.25 0  0.6 0.25 0  0.65 0.25 0  0.7 0.25 0  0.75 0.25 0  0.8 0.25 0  0.85 0.25 0  0.9 0.25 0  0.95 0.25 0  1 0.25 0  0 0.3 0  0.05 0.3 0  0.1 0.3 0  0.15 0.3 0  0.2 0.3 0  0.25 0.3 0  0.3 0.3 0  0.35 0.3 0  0.4 0.3 0  0.45 0.3 0  0.5 0.3 0  0.55 0.3 0  0.6 0.3 0  0.65 0.3 0  0.7 0.3 0  0.75 0.3 0  0.8 0.3 0  0.85 0.3 0  0.9 0.3 0  0.95 0.3 0  1 0.3 0  0 0.35 0  0.05 0.35 0  0.1 0.35 0  0.15 0.35 0  0.2 0.35 0  0.25 0.35 0  0.3 0.35 0  0.35 0.35 0  0.4 0.35 0  0.45 0.35 0  0.5 0.35 0  0.55 0.35 0  0.6 0.35 0  0.65 0.35 0  0.7 0.35 0  0.75 0.35 0  0.8 0.35 0  0.85 0.35 0  0.9 0.35 0  0.95 0.35 0  1 0.35 0  0 0.4 0  0.05 0.4 0  0.1 0.4 0  0.15 0.4 0  0.2 0.4 0  0.25 0.4 0  0.3 0.4 0  0.35 0.4 0  0.4 0.4 0  0.45 0.4 0  0.5 0.4 0  0.55 0.4 0  0.6 0.4 0  0.65 0.4 0  0.7 0.4 0  0.75 0.4 0  0.8 0.4 0  0.85 0.4 0  0.9 0.4 0  0.95 0.4 0  1 0.4 0  0 0.45 0  0.05 0.45 0  0.1 0.45 0  0.15 0.45 0  0.2 0.45 0  0.25 0.45 0  0.3 0.45 0  0.35 0.45 0  0.4 0.45 0  0.45 0.45 0  0.5 0.45 0  0.55 0.45 0  0.6 0.45 0  0.65 0.45 0  0.7 0.45 0  0.75 0.45 0  0.8 0.45 0  0.85 0.45 0  0.9 0.45 0  0.95 0.45 0  1 0.45 0  0 0.5 0  0.05 0.5 0  0.1 0.5 0  0.15 0.5 0  0.2 0.5 0  0.25 0.5 0  0.3 0.5 0  0.35 0.5 0  0.4 0.5 0  0.45 0.5 0  0.5 0.5 0  0.55 0.5 0  0.6 0.5 0  0.65 0.5 0  0.7 0.5 0  0.75 0.5 0  0.8 0.5 0  0.85 0.5 0  0.9 0.5 0  0.95 0.5 0  1 0.5 0  0 0.55 0  0.05 0.55 0  0.1 0.55 0  0.15 0.55 0  0.2 0.55 0  0.25 0.55 0  0.3 0.55 0  0.35 0.55 0  0.4 0.55 0  0.45 0.55 0  0.5 0.55 0  0.55 0.55 0  0.6 0.55 0  0.65 0.55 0  0.7 0.55 0  0.75 0.55 0  0.8 0.55 0  0.85 0.55 0  0.9 0.55 0  0.95 0.55 0  1 0.55 0  0 0.6 0  0.05 0.6 0  0.1 0.6 0  0.15 0.6 0  0.2 0.6 0  0.25 0.6 0  0.3 0.6 0  0.35 0.6 0  0.4 0.6 0  0.45 0.6 0  0.5 0.6 0  0.55 0.6 0  0.6 0.6 0  0.65 0.6 0  0.7 0.6 0  0.75 0.6 0  0.8 0.6 0  0.85 0.6 0  0.9 0.6 0  0.95 0.6 0  1 0.6 0  0 0.65 0  0.05 0.65 0  0.1 0.65 0  0.15 0.65 0  0.2 0.65 0  0.25 0.65 0  0.3 0.65 0  0.35 0.65 0  0.4 0.65 0  0.45 0.65 0  0.5 0.65 0  0.55 0.65 0  0.6 0.65 0  0.65 0.65 0  0.7 0.65 0  0.75 0.65 0  0.8 0.65 0  0.85 0.65 0  0.9 0.65 0  0.95 0.65 0  1 0.65 0  0 0.7 0  0.05 0.7 0  0.1 0.7 0  0.15 0.7 0  0.2 0.7 0  0.25 0.7 0  0.3 0.7 0  0.35 0.7 0  0.4 0.7 0  0.45 0.7 0  0.5 0.7 0  0.55 0.7 0  0.6 0.7 0  0.65 0.7 0  0.7 0.7 0  0.75 0.7 0  0.8 0.7 0  0.85 0.7 0  0.9 0.7 0  0.95 0.7 0  1 0.7 0  0 0.75 0  0.05 0.75 0  0.1 0.75 0  0.15 0.75 0  0.2 0.75 0  0.25 0.75 0  0.3 0.75 0  0.35 0.75 0  0.4 0.75 0  0.45 0.75 0  0.5 0.75 0  0.55 0.75 0  0.6 0.75 0  0.65 0.75 0  0.7 0.75 0  0.75 0.75 0  0.8 0.75 0  0.85 0.75 0  0.9 0.75 0  0.95 0.75 0  1 0.75 0  0 0.8 0  0.05 0.8 0  0.1 0.8 0  0.15 0.8 0  0.2 0.8 0  0.25 0.8 0  0.3 0.8 0  0.35 0.8 0  0.4 0.8 0  0.45 0.8 0  0.5 0.8 0  0.55 0.8 0  0.6 0.8 0  0.65 0.8 0  0.7 0.8 0  0.75 0.8 0  0.8 0.8 0  0.85 0.8 0  0.9 0.8 0  0.95 0.8 0  1 0.8 0  0 0.85 0  0.05 0.85 0  0.1 0.85 0  0.15 0.85 0  0.2 0.85 0  0.25 0.85 0  0.3 0.85 0  0.35 0.85 0  0.4 0.85 0  0.45 0.85 0  0.5 0.85 0  0.55 0.85 0  0.6 0.85 0  0.65 0.85 0  0.7 0.85 0  0.75 0.85 0  0.8 0.85 0  0.85 0.85 0  0.9 0.85 0  0.95 0.85 0  1 0.85 0  0 0.9 0  0.05 0.9 0  0.1 0.9 0  0.15 0.9 0  0.2 0.9 0  0.25 0.9 0  0.3 0.9 0  0.35 0.9 0  0.4 0.9 0  0.45 0.9 0  0.5 0.9 0  0.55 0.9 0  0.6 0.9 0  0.65 0.9 0  0.7 0.9 0  0.75 0.9 0  0.8 0.9 0  0.85 0.9 0  0.9 0.9 0  0.95 0.9 0  1 0.9 0  0 0.95 0  0.05 0.95 0  0.1 0.95 0  0.15 0.95 0  0.2 0.95 0  0.25 0.95 0  0.3 0.95 0  0.35 0.95 0  0.4 0.95 0  0.45 0.95 0  0.5 0.95 0  0.55 0.95 0  0.6 0.95 0  0.65 0.95 0  0.7 0.95 0  0.75 0.95 0  0.8 0.95 0  0.85 0.95 0  0.9 0.95 0  0.95 0.95 0  1 0.95 0  0 1 0  0.05 1 0  0.1 1 0  0.15 1 0  0.2 1 0  0.25 1 0  0.3 1 0  0.35 1 0  0.4 1 0  0.45 1 0  0.5 1 0  0.55 1 0  0.6 1 0  0.65 1 0  0.7 1 0  0.75 1 0  0.8 1 0  0.85 1 0  0.9 1 0  0.95 1 0  1 1 0  </DataArray>
</Points>
<Cells>
[...]
<PointData  Vectors="f_137"> 
<DataArray  type="Float64"  Name="f_137"  NumberOfComponents="3" format="ascii">0.0000000000000000e+00 0.0000000000000000e+00 0.0000000000000000e+00  0.0000000000000000e+00 0.0000000000000000e+00 0.0000000000000000e+00  0.0000000000000000e+00 0.0000000000000000e+00 0.0000000000000000e+00  0.0000000000000000e+00 0.0000000000000000e+00 0.0000000000000000e+00  0.0000000000000000e+00 0.0000000000000000e+00 0.0000000000000000e+00  0.0000000000000000e+00 0.0000000000000000e+00 0.0000000000000000e+00  0.0000000000000000e+00 0.0000000000000000e+00 0.0000000000000000e+00  0.0000000000000000e+00 0.0000000000000000e+00 0.0000000000000000e+00  0.0000000000000000e+00 0.0000000000000000e+00 0.0000000000000000e+00  0.0000000000000000e+00 0.0000000000000000e+00 0.0000000000000000e+00  0.0000000000000000e+00 0.0000000000000000e+00 0.0000000000000000e+00  0.0000000000000000e+00 0.0000000000000000e+00 0.0000000000000000e+00  0.0000000000000000e+00 0.0000000000000000e+00 0.0000000000000000e+00  0.0000000000000000e+00 0.0000000000000000e+00 0.0000000000000000e+00  0.0000000000000000e+00 0.0000000000000000e+00 0.0000000000000000e+00  0.0000000000000000e+00 0.0000000000000000e+00 0.0000000000000000e+00  0.0000000000000000e+00 0.0000000000000000e+00 0.0000000000000000e+00  0.0000000000000000e+00 0.0000000000000000e+00 0.0000000000000000e+00  0.0000000000000000e+00 0.0000000000000000e+00 0.0000000000000000e+00  0.0000000000000000e+00 0.0000000000000000e+00 0.0000000000000000e+00  0.0000000000000000e+00 0.0000000000000000e+00 0.0000000000000000e+00  0.0000000000000000e+00 0.0000000000000000e+00 0.0000000000000000e+00  -7.8171293811985973e-04 7.7309938369605059e-04 0.0000000000000000e+00  -1.8970113129057227e-03 7.5648775249179080e-04 0.0000000000000000e+00  -2.9603780974371634e-03 7.1211829516138348e-04 0.0000000000000000e+00  -3.9465811894868709e-03 6.4946455976977316e-04 0.0000000000000000e+00  -4.8303631633185252e-03 5.7026618903044228e-04 0.0000000000000000e+00  -5.5890330853455329e-03 4.7668114990984442e-04 0.0000000000000000e+00  -6.2036791487533943e-03 3.7108255753637423e-04 0.0000000000000000e+00  -6.6589569871694293e-03 2.5598702312955540e-04 0.0000000000000000e+00  -6.9432903515074390e-03 1.3401618080180553e-04 0.0000000000000000e+00  -7.0489727223305744e-03 7.8787851819523524e-06 0.0000000000000000e+00  -6.9722622752157641e-03 -1.1961044015327700e-04 0.0000000000000000e+00  -6.7135181696617047e-03 -2.4549669111341833e-04 0.0000000000000000e+00  -6.2773865022960861e-03 -3.6665943184810900e-04 0.0000000000000000e+00  -5.6730117709584962e-03 -4.7982200838708782e-04 0.0000000000000000e+00  -4.9141961613496611e-03 -5.8162099623959996e-04 0.0000000000000000e+00  -4.0194123964384602e-03 -6.6866655166939739e-04 0.0000000000000000e+00  -3.0118905538000563e-03 -7.3721889049505258e-04 0.0000000000000000e+00  -1.9219258520713808e-03 -7.8457425661466811e-04 0.0000000000000000e+00  -7.7137740966969136e-04 -7.6876121076615992e-04 0.0000000000000000e+00  0.0000000000000000e+00 0.0000000000000000e+00 0.0000000000000000e+00  0.0000000000000000e+00 0.0000000000000000e+00 0.0000000000000000e+00  -8.1477769749257133e-04 1.9184771448188800e-03 0.0000000000000000e+00  -1.9838294448616279e-03 1.8862206871661251e-03 0.0000000000000000e+00  -3.1044185330157872e-03 1.7807656389041537e-03 0.0000000000000000e+00  -4.1451952591768752e-03 1.6251130501017969e-03 0.0000000000000000e+00  -5.0778099981510522e-03 1.4281429857465296e-03 0.0000000000000000e+00  -5.8789739076383039e-03 1.1953769677425551e-03 0.0000000000000000e+00  -6.5289199955376543e-03 9.3278561416527939e-04 0.0000000000000000e+00  -7.0116838144701280e-03 6.4670032297217987e-04 0.0000000000000000e+00  -7.3152061659085667e-03 3.4364083648896282e-04 0.0000000000000000e+00  -7.4313608941185679e-03 3.0282265578240158e-05 0.0000000000000000e+00  -7.3560102299725328e-03 -2.8648760899796630e-04 0.0000000000000000e+00  -7.0891383543432163e-03 -5.9946519342238779e-04 0.0000000000000000e+00  -6.6350795460107387e-03 -9.0104142717044799e-04 0.0000000000000000e+00  -6.0028137605748688e-03 -1.1831920691642358e-03 0.0000000000000000e+00  -5.2062661659628669e-03 -1.4376121211673689e-03 0.0000000000000000e+00  -4.2645772819039380e-03 -1.6559541838133819e-03 0.0000000000000000e+00  -3.2013950495605368e-03 -1.8294482397295728e-03 0.0000000000000000e+00  -2.0491555122201951e-03 -1.9467342674516345e-03 0.0000000000000000e+00  -8.3979376436052716e-04 -1.9518026447374944e-03 0.0000000000000000e+00  0.0000000000000000e+00 0.0000000000000000e+00 0.0000000000000000e+00  0.0000000000000000e+00 0.0000000000000000e+00 0.0000000000000000e+00  -8.6149234147257347e-04 3.1119535452764704e-03 0.0000000000000000e+00  -2.1005819628849985e-03 3.0679087856946303e-03 0.0000000000000000e+00  -3.2859413521742482e-03 2.8950128452109834e-03 0.0000000000000000e+00  -4.3864056757691875e-03 2.6413933023986878e-03 0.0000000000000000e+00  -5.3716171775627158e-03 2.3205144063679736e-03 0.0000000000000000e+00  -6.2174797466016708e-03 1.9418830037430345e-03 0.0000000000000000e+00  -6.9036286288786421e-03 1.5153663832031177e-03 0.0000000000000000e+00  -7.4138126695704474e-03 1.0512618852962096e-03 0.0000000000000000e+00  -7.7358025377161754e-03 5.6002602349688145e-04 0.0000000000000000e+00  -7.8612734481921225e-03 5.2244663621481623e-05 0.0000000000000000e+00  -7.7857597706780662e-03 -4.6122691362219213e-04 0.0000000000000000e+00  -7.5087581710557381e-03 -9.6903017533108110e-04 0.0000000000000000e+00  -7.0340144510516933e-03 -1.4590814226581226e-03 0.0000000000000000e+00  -6.3699702082940417e-03 -1.9184827188163860e-03 0.0000000000000000e+00  -5.5302862701739307e-03 -2.3336864156222018e-03 0.0000000000000000e+00  -4.5343299354962292e-03 -2.6908742388148730e-03 0.0000000000000000e+00  -3.4066452518501365e-03 -2.9754789195529942e-03 0.0000000000000000e+00  -2.1823177524087252e-03 -3.1696025949923090e-03 0.0000000000000000e+00  -8.9219949240726133e-04 -3.1871594396140506e-03 0.0000000000000000e+00  0.0000000000000000e+00 0.0000000000000000e+00 0.0000000000000000e+00  0.0000000000000000e+00 0.0000000000000000e+00 0.0000000000000000e+00  -9.3155343472564427e-04 4.3882182731987407e-03 0.0000000000000000e+00  -2.2693703163322314e-03 4.3321682034446708e-03 0.0000000000000000e+00  -3.5489126540894085e-03 4.0868999352397491e-03 0.0000000000000000e+00  -4.7350033386151357e-03 3.7274897995210857e-03 0.0000000000000000e+00  -5.7953644689714831e-03 3.2734605313089952e-03 0.0000000000000000e+00  -6.7046695870176132e-03 2.7388520642771816e-03 0.0000000000000000e+00  -7.4419597648464108e-03 2.1378827826428132e-03 0.0000000000000000e+00  -7.9908166921103391e-03 1.4850497021378856e-03 0.0000000000000000e+00  -8.3389920252252975e-03 7.9477934284150249e-04 0.0000000000000000e+00  -8.4780332269513894e-03 8.1425299662659013e-05 0.0000000000000000e+00  -8.4030523658678944e-03 -6.4043238064444513e-04 0.0000000000000000e+00  -8.1127619747330629e-03 -1.3555142977121387e-03 0.0000000000000000e+00  -7.6098439958498564e-03 -2.0473641359507536e-03 0.0000000000000000e+00  -6.9016361470421242e-03 -2.6980636263419719e-03 0.0000000000000000e+00  -6.0010281642325176e-03 -3.2883450318746082e-03 0.0000000000000000e+00  -4.9274020675251625e-03 -3.7981123944975403e-03 0.0000000000000000e+00  -3.7063946667766838e-03 -4.2060245470499644e-03 0.0000000000000000e+00  -2.3763248777527190e-03 -4.4857829903853924e-03 0.0000000000000000e+00  -9.7116786576934857e-04 -4.5186088939108623e-03 0.0000000000000000e+00  0.0000000000000000e+00 0.0000000000000000e+00 0.0000000000000000e+00  0.0000000000000000e+00 0.0000000000000000e+00 0.0000000000000000e+00  -1.0273403918653209e-03 5.7819862203325762e-03 0.0000000000000000e+00  -2.5003757340612939e-03 5.7107107913391669e-03 0.0000000000000000e+00  -3.9076489047119613e-03 5.3843464807981165e-03 0.0000000000000000e+00  -5.2091857704531950e-03 4.9074940576528695e-03 0.0000000000000000e+00  -6.3700532892308351e-03 4.3068523746066191e-03 0.0000000000000000e+00  -7.3634643673254323e-03 3.6019193953383396e-03 0.0000000000000000e+00  -8.1680435184579726e-03 2.8119471457585849e-03 0.0000000000000000e+00  -8.7675845963410375e-03 1.9559839932003719e-03 0.0000000000000000e+00  -9.1502243766140613e-03 1.0524091783727983e-03 0.0000000000000000e+00  -9.3076392468630746e-03 1.1902303747837734e-04 0.0000000000000000e+00  -9.2344967085717360e-03 -8.2637201176801399e-04 0.0000000000000000e+00  -8.9283551894020468e-03 -1.7650882240420154e-03 0.0000000000000000e+00  -8.3901278612017894e-03 -2.6766183980183639e-03 0.0000000000000000e+00  -7.6251201351355651e-03 -3.5379539350656078e-03 0.0000000000000000e+00  -6.6445179154175577e-03 -4.3234916389370669e-03 0.0000000000000000e+00  -5.4670890287296728e-03 -5.0056457849399971e-03 0.0000000000000000e+00  -4.1195160848321631e-03 -5.5545135984991544e-03 0.0000000000000000e+00  -2.6445714654806706e-03 -5.9332182299322344e-03 0.0000000000000000e+00  -1.0806675655079504e-03 -5.9854780625026027e-03 0.0000000000000000e+00  0.0000000000000000e+00 0.0000000000000000e+00 0.0000000000000000e+00  0.0000000000000000e+00 0.0000000000000000e+00 0.0000000000000000e+00  -1.1525371879431809e-03 7.3318710471785078e-03 0.0000000000000000e+00  -2.8022005069289727e-03 7.2412339954332147e-03 0.0000000000000000e+00  -4.3750539080057906e-03 6.8214699914517637e-03 0.0000000000000000e+00  -5.8248380296909968e-03 6.2107160672298638e-03 0.0000000000000000e+00  -7.1132222415265537e-03 5.4447493576923597e-03 0.0000000000000000e+00  -8.2119919958795005e-03 4.5500389477818749e-03 0.0000000000000000e+00  -9.0999198725680974e-03 3.5519162777846174e-03 0.0000000000000000e+00  -9.7618613336701715e-03 2.4744549871786015e-03 0.0000000000000000e+00  -1.0187183227660542e-02 1.3398715408486923e-03 0.0000000000000000e+00  -1.0368273127793020e-02 1.6880127742939451e-04 0.0000000000000000e+00  -1.0299474765859859e-02 -1.0186558176414574e-03 0.0000000000000000e+00  -9.9767320431298420e-03 -2.2013888294297309e-03 0.0000000000000000e+00  -9.3981322817405788e-03 -3.3555788610026838e-03 0.0000000000000000e+00  -8.5654187908325036e-03 -4.4532895250088177e-03 0.0000000000000000e+00  -7.4863687667663789e-03 -5.4618747467957236e-03 0.0000000000000000e+00  -6.1777321684349596e-03 -6.3445221117538631e-03 0.0000000000000000e+00  -4.6666569047005306e-03 -7.0600344485044000e-03 0.0000000000000000e+00  -3.0014477672265253e-03 -7.5574620130364201e-03 0.0000000000000000e+00  -1.2269268068159189e-03 -7.6354601311199527e-03 0.0000000000000000e+00  0.0000000000000000e+00 0.0000000000000000e+00 0.0000000000000000e+00  0.0000000000000000e+00 0.0000000000000000e+00 0.0000000000000000e+00  -1.3124552941351361e-03 9.0831319281515169e-03 0.0000000000000000e+00  -3.1870839232429077e-03 8.9666942000084862e-03 0.0000000000000000e+00  -4.9687878806774525e-03 8.4359038605187221e-03 0.0000000000000000e+00  -6.6030107204352829e-03 7.6682438088477578e-03 0.0000000000000000e+00  -8.0472782828422441e-03 6.7114811011978175e-03 0.0000000000000000e+00  -9.2724042477433499e-03 5.6013808072315589e-03 0.0000000000000000e+00  -1.0258558559065821e-02 4.3709075642232595e-03 0.0000000000000000e+00  -1.0993276506127294e-02 3.0497770426069523e-03 0.0000000000000000e+00  -1.1468705972219615e-02 1.6637284785691294e-03 0.0000000000000000e+00  -1.1679058065548800e-02 2.3514211601289797e-04 0.0000000000000000e+00  -1.1618741105609507e-02 -1.2151885703098094e-03 0.0000000000000000e+00  -1.1281554744006196e-02 -2.6654991293602291e-03 0.0000000000000000e+00  -1.0661232738331448e-02 -4.0901569506462711e-03 0.0000000000000000e+00  -9.7535273972408527e-03 -5.4570046887832575e-03 0.0000000000000000e+00  -8.5598453716796037e-03 -6.7257324244072879e-03 0.0000000000000000e+00  -7.0921406556790452e-03 -7.8479588019370623e-03 0.0000000000000000e+00  -5.3763419186225467e-03 -8.7670453856418910e-03 0.0000000000000000e+00  -3.4671847420668111e-03 -9.4123731243513729e-03 0.0000000000000000e+00  -1.4186037507785639e-03 -9.5267172795738906e-03 0.0000000000000000e+00  0.0000000000000000e+00 0.0000000000000000e+00 0.0000000000000000e+00  0.0000000000000000e+00 0.0000000000000000e+00 0.0000000000000000e+00  -1.5148163668142489e-03 1.1089889613603698e-02 0.0000000000000000e+00  -3.6727051164002142e-03 1.0937557682612887e-02 0.0000000000000000e+00  -5.7139068697548145e-03 1.0270393280783323e-02 0.0000000000000000e+00  -7.5727972078395928e-03 9.3135732827907096e-03 0.0000000000000000e+00  -9.2021548488108919e-03 8.1314168722005989e-03 0.0000000000000000e+00  -1.0573041486772919e-02 6.7725640660008758e-03 0.0000000000000000e+00  -1.1669411868362300e-02 5.2798680059410420e-03 0.0000000000000000e+00  -1.2484315623776051e-02 3.6894322661674720e-03 0.0000000000000000e+00  -1.3015313464050795e-02 2.0298410664518207e-03 0.0000000000000000e+00  -1.3260368024704084e-02 3.2338552320229755e-04 0.0000000000000000e+00  -1.3214805262586999e-02 -1.4110779155147417e-03 0.0000000000000000e+00  -1.2869771355539093e-02 -3.1541219491517496e-03 0.0000000000000000e+00  -1.2212568068893714e-02 -4.8810850452460797e-03 0.0000000000000000e+00  -1.1229276099857204e-02 -6.5574037471562248e-03 0.0000000000000000e+00  -9.9099984072781051e-03 -8.1350035939282694e-03 0.0000000000000000e+00  -8.2567092630314934e-03 -9.5510180979631390e-03 0.0000000000000000e+00  -6.2902596154300128e-03 -1.0727163910504456e-02 0.0000000000000000e+00  -4.0720318649645265e-03 -1.1564118093354848e-02 0.0000000000000000e+00  -1.6687149488000491e-03 -1.1732478983725963e-02 0.0000000000000000e+00  0.0000000000000000e+00 0.0000000000000000e+00 0.0000000000000000e+00  0.0000000000000000e+00 0.0000000000000000e+00 0.0000000000000000e+00  -1.7710714942423089e-03 1.3419271084128692e-02 0.0000000000000000e+00  -4.2849107030524317e-03 1.3214897693171853e-02 0.0000000000000000e+00  -6.6462872665525316e-03 1.2374225452042838e-02 0.0000000000000000e+00  -8.7746405824767216e-03 1.1182382466468308e-02 0.0000000000000000e+00  -1.0617808979298246e-02 9.7274630822902653e-03 0.0000000000000000e+00  -1.2149752270892452e-02 8.0764510604449061e-03 0.0000000000000000e+00  -1.3362493925461356e-02 6.2852579628013688e-03 0.0000000000000000e+00  -1.4259309934195732e-02 4.3971418070405978e-03 0.0000000000000000e+00  -1.4847383180093836e-02 2.4422055585108216e-03 0.0000000000000000e+00  -1.5131532699798196e-02 4.3971013939930943e-04 0.0000000000000000e+00  -1.5109603306858033e-02 -1.5975087509694274e-03 0.0000000000000000e+00  -1.4769820612723854e-02 -3.6571248436375993e-03 0.0000000000000000e+00  -1.4090492883183627e-02 -5.7202828355272760e-03 0.0000000000000000e+00  -1.3042790347172355e-02 -7.7539114362640783e-03 0.0000000000000000e+00  -1.1597640182856399e-02 -9.7035670256312642e-03 0.0000000000000000e+00  -9.7377101121408679e-03 -1.1488870948213031e-02 0.0000000000000000e+00  -7.4705724509826375e-03 -1.3000876127184129e-02 0.0000000000000000e+00  -4.8624198701244089e-03 -1.4096705921127335e-02 0.0000000000000000e+00  -1.9974804572034975e-03 -1.4349125636800283e-02 0.0000000000000000e+00  0.0000000000000000e+00 0.0000000000000000e+00 0.0000000000000000e+00  0.0000000000000000e+00 0.0000000000000000e+00 0.0000000000000000e+00  -2.0986526251855265e-03 1.6157773427137270e-02 0.0000000000000000e+00  -5.0624052062704494e-03 1.5874897959286864e-02 0.0000000000000000e+00  -7.8183426652735279e-03 1.4804942444753342e-02 0.0000000000000000e+00  -1.0265566128092150e-02 1.3311545436952114e-02 0.0000000000000000e+00  -1.2347914782230417e-02 1.1518153460909919e-02 0.0000000000000000e+00  -1.4047599042115052e-02 9.5183388770385818e-03 0.0000000000000000e+00  -1.5372157644739193e-02 7.3852651018252134e-03 0.0000000000000000e+00  -1.6342619398455566e-02 5.1697683340138590e-03 0.0000000000000000e+00  -1.6982153363217171e-02 2.9009841526873702e-03 0.0000000000000000e+00  -1.7307083221170347e-02 5.9062171334054944e-04 0.0000000000000000e+00  -1.7320468664257450e-02 -1.7604781068912109e-03 0.0000000000000000e+00  -1.7008024949935672e-02 -4.1541935107338984e-03 0.0000000000000000e+00  -1.6336469500896678e-02 -6.5853265682246148e-03 0.0000000000000000e+00  -1.5255304102967862e-02 -9.0298461119537113e-03 0.0000000000000000e+00  -1.3704461608139585e-02 -1.1431907860990438e-02 0.0000000000000000e+00  -1.1631095611157397e-02 -1.3692213449488526e-02 0.0000000000000000e+00  -9.0124799835422618e-03 -1.5658858800110025e-02 0.0000000000000000e+00  -5.9121004279327500e-03 -1.7120560124786174e-02 0.0000000000000000e+00  -2.4372938832189902e-03 -1.7509459047561123e-02 0.0000000000000000e+00  0.0000000000000000e+00 0.0000000000000000e+00 0.0000000000000000e+00  0.0000000000000000e+00 0.0000000000000000e+00 0.0000000000000000e+00  -2.5250057119617720e-03 1.9421524075765018e-02 0.0000000000000000e+00  -6.0649232111407419e-03 1.9015665744484669e-02 0.0000000000000000e+00  -9.3085778269197915e-03 1.7630182579477290e-02 0.0000000000000000e+00  -1.2127441323206577e-02 1.5736501841033614e-02 0.0000000000000000e+00  -1.4465201824254986e-02 1.3512218821949740e-02 0.0000000000000000e+00  -1.6322885322097819e-02 1.1089581023075128e-02 0.0000000000000000e+00  -1.7736253769091329e-02 8.5638737933836188e-03 0.0000000000000000e+00  -1.8755650328710318e-02 5.9926206207105044e-03 0.0000000000000000e+00  -1.9429231041267935e-02 3.3994127776506055e-03 0.0000000000000000e+00  -1.9791178995850103e-02 7.8172511796679078e-04 0.0000000000000000e+00  -1.9853840389327623e-02 -1.8797289364260736e-03 0.0000000000000000e+00  -1.9602224423237564e-02 -4.6107677992556391e-03 0.0000000000000000e+00  -1.8989968199496287e-02 -7.4315609401327904e-03 0.0000000000000000e+00  -1.7937847643794448e-02 -1.0340614974217097e-02 0.0000000000000000e+00  -1.6338996141489370e-02 -1.3293416403966852e-02 0.0000000000000000e+00  -1.4077882600980401e-02 -1.6176687116348641e-02 0.0000000000000000e+00  -1.1066348426930127e-02 -1.8780838739438425e-02 0.0000000000000000e+00  -7.3431141632366902e-03 -2.0784802871824788e-02 0.0000000000000000e+00  -3.0426553605572091e-03 -2.1405569532382037e-02 0.0000000000000000e+00  0.0000000000000000e+00 0.0000000000000000e+00 0.0000000000000000e+00  0.0000000000000000e+00 0.0000000000000000e+00 0.0000000000000000e+00  -3.0951638773373414e-03 2.3373316897080158e-02 0.0000000000000000e+00  -7.3879014975052519e-03 2.2767796502977937e-02 0.0000000000000000e+00  -1.1237847020918483e-02 2.0928963589021514e-02 0.0000000000000000e+00  -1.4479910005671101e-02 1.8485121298174149e-02 0.0000000000000000e+00  -1.7068732765843118e-02 1.5698663721993706e-02 0.0000000000000000e+00  -1.9044940183853470e-02 1.2757212692579725e-02 0.0000000000000000e+00  -2.0493857947050567e-02 9.7820387270793757e-03 0.0000000000000000e+00  -2.1512039402825343e-02 6.8328510975303779e-03 0.0000000000000000e+00  -2.2184184206263644e-02 3.9193730422149471e-03 0.0000000000000000e+00  -2.2569896380391318e-02 1.0153746151906836e-03 0.0000000000000000e+00  -2.2696139735591515e-02 -1.9286234013916285e-03 0.0000000000000000e+00  -2.2551249254551601e-02 -4.9740830794424307e-03 0.0000000000000000e+00  -2.2077785504630250e-02 -8.1821525608454897e-03 0.0000000000000000e+00  -2.1164597875662994e-02 -1.1596167172559941e-02 0.0000000000000000e+00  -1.9641488957891997e-02 -1.5210350080733707e-02 0.0000000000000000e+00  -1.7285471895108800e-02 -1.8917578134472160e-02 0.0000000000000000e+00  -1.3875754992288247e-02 -2.2441489052801609e-02 0.0000000000000000e+00  -9.3693256355267367e-03 -2.5292571660839820e-02 0.0000000000000000e+00  -3.9169857904529553e-03 -2.6338511661425697e-02 0.0000000000000000e+00  0.0000000000000000e+00 0.0000000000000000e+00 0.0000000000000000e+00  0.0000000000000000e+00 0.0000000000000000e+00 0.0000000000000000e+00  -3.8865840931752551e-03 2.8253335897017506e-02 0.0000000000000000e+00  -9.1897598261496665e-03 2.7310641548966057e-02 0.0000000000000000e+00  -1.3797606246954098e-02 2.4790154653982158e-02 0.0000000000000000e+00  -1.7500249670181284e-02 2.1564088729029901e-02 0.0000000000000000e+00  -2.0292674345364786e-02 1.8028794116555526e-02 0.0000000000000000e+00  -2.2295937408795079