<?xml version="1.0"?>
<VTKFile type="UnstructuredGrid"  version="0.1"  >
<UnstructuredGrid>
<Piece  NumberOfPoints="441" NumberOfCells="800">
<Points>
<DataArray  type="Float64"  NumberOfComponents="3"  format="ascii">0 0 0  0.05 0 0  0.1 0 0  0.15 0 0  0.2 0 0  0.25 0 0  0.3 0 0  0.35 0 0  0.4 0 0  0.45 0 0  0.5 0 0  0.55 0 0  0.6 0 0  0.65 0 0  0.7 0 0  0.75 0 0  0.8 0 0  0.85 0 0  0.9 0 0  0.95 0 0  1 0 0  0 0.05 0  0.05 0.05 0  0.1 0.05 0  0.15 0.05 0  0.2 0.05 0  0.25 0.05 0  0.3 0.05 0  0.35 0.05 0  0.4 0.05 0  0.45 0.05 0  0.5 0.05 0  0.55 0.05 0  0.6 0.05 0  0.65 0.05 0  0.7 0.05 0  0.75 0.05 0  0.8 0.05 0  0.85 0.05 0  0.9 0.05 0  0.95 0.05 0  1 0.05 0  0 0.1 0  0.05 0.1 0  0.1 0.1 0  0.15 0.1 0  0.2 0.1 0  0.25 0.1 0  0.3 0.1 0  0.35 0.1 0  0.4 0.1 0  0.45 0.1 0  0.5 0.1 0  0.55 0.1 0  0.6 0.1 0  0.65 0.1 0  0.7 0.1 0  0.75 0.1 0  0.8 0.1 0  0.85 0.1 0  0.9 0.1 0  0.95 0.1 0  1 0.1 0  0 0.15 0  0.05 0.15 0  0.1 0.15 0  0.15 0.15 0  0.2 0.15 0  0.25 0.15 0  0.3 0.15 0  0.35 0.15 0  0.4 0.15 0  0.45 0.15 0  0.5 0.15 0  0.55 0.15 0  0.6 0.15 0  0.65 0.15 0  0.7 0.15 0  0.75 0.15 0  0.8 0.15 0  0.85 0.15 0  0.9 0.15 0  0.95 0.15 0  1 0.15 0  0 0.2 0  0.05 0.2 0  0.1 0.2 0  0.15 0.2 0  0.2 0.2 0  0.25 0.2 0  0.3 0.2 0  0.35 0.2 0  0.4 0.2 0  0.45 0.2 0  0.5 0.2 0  0.55 0.2 0  0.6 0.2 0  0.65 0.2 0  0.7 0.2 0  0.75 0.2 0  0.8 0.2 0  0.85 0.2 0  0.9 0.2 0  0.95 0.2 0  1 0.2 0  0 0.25 0  0.05 0.25 0  0.1 0.25 0  0.15 0.25 0  0.2 0.25 0  0.25 0.25 0  0.3 0.25 0  0.35 0.25 0  0.4 0.25 0  0.45 0.25 0  0.5 0.25 0  0.55 0.25 0  0.6 0.25 0  0.65 0.25 0  0.7 0.25 0  0.75 0.25 0  0.8 0.25 0  0.85 0.25 0  0.9 0.25 0  0.95 0.25 0  1 0.25 0  0 0.3 0  0.05 0.3 0  0.1 0.3 0  0.15 0.3 0  0.2 0.3 0  0.25 0.3 0  0.3 0.3 0  0.35 0.3 0  0.4 0.3 0  0.45 0.3 0  0.5 0.3 0  0.55 0.3 0  0.6 0.3 0  0.65 0.3 0  0.7 0.3 0  0.75 0.3 0  0.8 0.3 0  0.85 0.3 0  0.9 0.3 0  0.95 0.3 0  1 0.3 0  0 0.35 0  0.05 0.35 0  0.1 0.35 0  0.15 0.35 0  0.2 0.35 0  0.25 0.35 0  0.3 0.35 0  0.35 0.35 0  0.4 0.35 0  0.45 0.35 0  0.5 0.35 0  0.55 0.35 0  0.6 0.35 0  0.65 0.35 0  0.7 0.35 0  0.75 0.35 0  0.8 0.35 0  0.85 0.35 0  0.9 0.35 0  0.95 0.35 0  1 0.35 0  0 0.4 0  0.05 0.4 0  0.1 0.4 0  0.15 0.4 0  0.2 0.4 0  0.25 0.4 0  0.3 0.4 0  0.35 0.4 0  0.4 0.4 0  0.45 0.4 0  0.5 0.4 0  0.55 0.4 0  0.6 0.4 0  0.65 0.4 0  0.7 0.4 0  0.75 0.4 0  0.8 0.4 0  0.85 0.4 0  0.9 0.4 0  0.95 0.4 0  1 0.4 0  0 0.45 0  0.05 0.45 0  0.1 0.45 0  0.15 0.45 0  0.2 0.45 0  0.25 0.45 0  0.3 0.45 0  0.35 0.45 0  0.4 0.45 0  0.45 0.45 0  0.5 0.45 0  0.55 0.45 0  0.6 0.45 0  0.65 0.45 0  0.7 0.45 0  0.75 0.45 0  0.8 0.45 0  0.85 0.45 0  0.9 0.45 0  0.95 0.45 0  1 0.45 0  0 0.5 0  0.05 0.5 0  0.1 0.5 0  0.15 0.5 0  0.2 0.5 0  0.25 0.5 0  0.3 0.5 0  0.35 0.5 0  0.4 0.5 0  0.45 0.5 0  0.5 0.5 0  0.55 0.5 0  0.6 0.5 0  0.65 0.5 0  0.7 0.5 0  0.75 0.5 0  0.8 0.5 0  0.85 0.5 0  0.9 0.5 0  0.95 0.5 0  1 0.5 0  0 0.55 0  0.05 0.55 0  0.1 0.55 0  0.15 0.55 0  0.2 0.55 0  0.25 0.55 0  0.3 0.55 0  0.35 0.55 0  0.4 0.55 0  0.45 0.55 0  0.5 0.55 0  0.55 0.55 0  0.6 0.55 0  0.65 0.55 0  0.7 0.55 0  0.75 0.55 0  0.8 0.55 0  0.85 0.55 0  0.9 0.55 0  0.95 0.55 0  1 0.55 0  0 0.6 0  0.05 0.6 0  0.1 0.6 0  0.15 0.6 0  0.2 0.6 0  0.25 0.6 0  0.3 0.6 0  0.35 0.6 0  0.4 0.6 0  0.45 0.6 0  0.5 0.6 0  0.55 0.6 0  0.6 0.6 0  0.65 0.6 0  0.7 0.6 0  0.75 0.6 0  0.8 0.6 0  0.85 0.6 0  0.9 0.6 0  0.95 0.6 0  1 0.6 0  0 0.65 0  0.05 0.65 0  0.1 0.65 0  0.15 0.65 0  0.2 0.65 0  0.25 0.65 0  0.3 0.65 0  0.35 0.65 0  0.4 0.65 0  0.45 0.65 0  0.5 0.65 0  0.55 0.65 0  0.6 0.65 0  0.65 0.65 0  0.7 0.65 0  0.75 0.65 0  0.8 0.65 0  0.85 0.65 0  0.9 0.65 0  0.95 0.65 0  1 0.65 0  0 0.7 0  0.05 0.7 0  0.1 0.7 0  0.15 0.7 0  0.2 0.7 0  0.25 0.7 0  0.3 0.7 0  0.35 0.7 0  0.4 0.7 0  0.45 0.7 0  0.5 0.7 0  0.55 0.7 0  0.6 0.7 0  0.65 0.7 0  0.7 0.7 0  0.75 0.7 0  0.8 0.7 0  0.85 0.7 0  0.9 0.7 0  0.95 0.7 0  1 0.7 0  0 0.75 0  0.05 0.75 0  0.1 0.75 0  0.15 0.75 0  0.2 0.75 0  0.25 0.75 0  0.3 0.75 0  0.35 0.75 0  0.4 0.75 0  0.45 0.75 0  0.5 0.75 0  0.55 0.75 0  0.6 0.75 0  0.65 0.75 0  0.7 0.75 0  0.75 0.75 0  0.8 0.75 0  0.85 0.75 0  0.9 0.75 0  0.95 0.75 0  1 0.75 0  0 0.8 0  0.05 0.8 0  0.1 0.8 0  0.15 0.8 0  0.2 0.8 0  0.25 0.8 0  0.3 0.8 0  0.35 0.8 0  0.4 0.8 0  0.45 0.8 0  0.5 0.8 0  0.55 0.8 0  0.6 0.8 0  0.65 0.8 0  0.7 0.8 0  0.75 0.8 0  0.8 0.8 0  0.85 0.8 0  0.9 0.8 0  0.95 0.8 0  1 0.8 0  0 0.85 0  0.05 0.85 0  0.1 0.85 0  0.15 0.85 0  0.2 0.85 0  0.25 0.85 0  0.3 0.85 0  0.35 0.85 0  0.4 0.85 0  0.45 0.85 0  0.5 0.85 0  0.55 0.85 0  0.6 0.85 0  0.65 0.85 0  0.7 0.85 0  0.75 0.85 0  0.8 0.85 0  0.85 0.85 0  0.9 0.85 0  0.95 0.85 0  1 0.85 0  0 0.9 0  0.05 0.9 0  0.1 0.9 0  0.15 0.9 0  0.2 0.9 0  0.25 0.9 0  0.3 0.9 0  0.35 0.9 0  0.4 0.9 0  0.45 0.9 0  0.5 0.9 0  0.55 0.9 0  0.6 0.9 0  0.65 0.9 0  0.7 0.9 0  0.75 0.9 0  0.8 0.9 0  0.85 0.9 0  0.9 0.9 0  0.95 0.9 0  1 0.9 0  0 0.95 0  0.05 0.95 0  0.1 0.95 0  0.15 0.95 0  0.2 0.95 0  0.25 0.95 0  0.3 0.95 0  0.35 0.95 0  0.4 0.95 0  0.45 0.95 0  0.5 0.95 0  0.55 0.95 0  0.6 0.95 0  0.65 0.95 0  0.7 0.95 0  0.75 0.95 0  0.8 0.95 0  0.85 0.95 0  0.9 0.95 0  0.95 0.95 0  1 0.95 0  0 1 0  0.05 1 0  0.1 1 0  0.15 1 0  0.2 1 0  0.25 1 0  0.3 1 0  0.35 1 0  0.4 1 0  0.45 1 0  0.5 1 0  0.55 1 0  0.6 1 0  0.65 1 0  0.7 1 0  0.75 1 0  0.8 1 0  0.85 1 0  0.9 1 0  0.95 1 0  1 1 0  </DataArray>
</Points>
<Cells>
[...]
<PointData  Vectors="f_137"> 
<DataArray  type="Float64"  Name="f_137"  NumberOfComponents="3" format="ascii">0.0000000000000000e+00 0.0000000000000000e+00 0.0000000000000000e+00  0.0000000000000000e+00 0.0000000000000000e+00 0.0000000000000000e+00  0.0000000000000000e+00 0.0000000000000000e+00 0.0000000000000000e+00  0.0000000000000000e+00 0.0000000000000000e+00 0.0000000000000000e+00  0.0000000000000000e+00 0.0000000000000000e+00 0.0000000000000000e+00  0.0000000000000000e+00 0.0000000000000000e+00 0.0000000000000000e+00  0.0000000000000000e+00 0.0000000000000000e+00 0.0000000000000000e+00  0.0000000000000000e+00 0.0000000000000000e+00 0.0000000000000000e+00  0.0000000000000000e+00 0.0000000000000000e+00 0.0000000000000000e+00  0.0000000000000000e+00 0.0000000000000000e+00 0.0000000000000000e+00  0.0000000000000000e+00 0.0000000000000000e+00 0.0000000000000000e+00  0.0000000000000000e+00 0.0000000000000000e+00 0.0000000000000000e+00  0.0000000000000000e+00 0.0000000000000000e+00 0.0000000000000000e+00  0.0000000000000000e+00 0.0000000000000000e+00 0.0000000000000000e+00  0.0000000000000000e+00 0.0000000000000000e+00 0.0000000000000000e+00  0.0000000000000000e+00 0.0000000000000000e+00 0.0000000000000000e+00  0.0000000000000000e+00 0.0000000000000000e+00 0.0000000000000000e+00  0.0000000000000000e+00 0.0000000000000000e+00 0.0000000000000000e+00  0.0000000000000000e+00 0.0000000000000000e+00 0.0000000000000000e+00  0.0000000000000000e+00 0.0000000000000000e+00 0.0000000000000000e+00  0.0000000000000000e+00 0.0000000000000000e+00 0.0000000000000000e+00  0.0000000000000000e+00 0.0000000000000000e+00 0.0000000000000000e+00  -7.9069295078493728e-04 7.8210577071190712e-04 0.0000000000000000e+00  -1.9343366156057038e-03 7.7006577552772158e-04 0.0000000000000000e+00  -3.0263591111752510e-03 7.2515377895353511e-04 0.0000000000000000e+00  -4.0395577962908241e-03 6.6178638430097682e-04 0.0000000000000000e+00  -4.9480690863451309e-03 5.8156135393045837e-04 0.0000000000000000e+00  -5.7285334717585750e-03 4.8664015315613430e-04 0.0000000000000000e+00  -6.3614499561283665e-03 3.7940521649364509e-04 0.0000000000000000e+00  -6.8309384990014920e-03 2.6239023755935282e-04 0.0000000000000000e+00  -7.1249600931903882e-03 1.3824341632660340e-04 0.0000000000000000e+00  -7.2354308252964772e-03 9.7110398016626294e-06 0.0000000000000000e+00  -7.1583321678811984e-03 -1.2034138530185774e-04 0.0000000000000000e+00  -6.8938660101530999e-03 -2.4889288573920292e-04 0.0000000000000000e+00  -6.4466620833777454e-03 -3.7273988087764131e-04 0.0000000000000000e+00  -5.8260126282737006e-03 -4.8850590766975237e-04 0.0000000000000000e+00  -5.0460516950974277e-03 -5.9271761420153749e-04 0.0000000000000000e+00  -4.1257775578697276e-03 -6.8189428977415492e-04 0.0000000000000000e+00  -3.0891150881671770e-03 -7.5215046902739346e-04 0.0000000000000000e+00  -1.9675313284065400e-03 -7.9991052217117276e-04 0.0000000000000000e+00  -7.8456091703949101e-04 -7.8200015195442217e-04 0.0000000000000000e+00  0.0000000000000000e+00 0.0000000000000000e+00 0.0000000000000000e+00  0.0000000000000000e+00 0.0000000000000000e+00 0.0000000000000000e+00  -8.2864561792973790e-04 1.9561829502748435e-03 0.0000000000000000e+00  -2.0314270497242366e-03 1.9325750271558611e-03 0.0000000000000000e+00  -3.1853096120085253e-03 1.8254686928628598e-03 0.0000000000000000e+00  -4.2575784282517515e-03 1.6667387260879516e-03 0.0000000000000000e+00  -5.2188961079083079e-03 1.4656843937810810e-03 0.0000000000000000e+00  -6.0452497887959079e-03 1.2278351151349396e-03 0.0000000000000000e+00  -6.7162016108551718e-03 9.5923936806623653e-04 0.0000000000000000e+00  -7.2151902899440044e-03 6.6632509568106935e-04 0.0000000000000000e+00  -7.5296479370882963e-03 3.5572868370346811e-04 0.0000000000000000e+00  -7.6510374662579136e-03 3.4266313550656929e-05 0.0000000000000000e+00  -7.5749222583060324e-03 -2.9100303865143065e-04 0.0000000000000000e+00  -7.3011185251087903e-03 -6.1266834223149360e-04 0.0000000000000000e+00  -6.8339469099035028e-03 -9.2287219245785232e-04 0.0000000000000000e+00  -6.1825542072316813e-03 -1.2133006073966385e-03 0.0000000000000000e+00  -5.3612363540411429e-03 -1.4753276983924426e-03 0.0000000000000000e+00  -4.3897545287556869e-03 -1.7002977868210659e-03 0.0000000000000000e+00  -3.2925223523608232e-03 -1.8791363960988395e-03 0.0000000000000000e+00  -2.1032813176555085e-03 -1.9987159344272286e-03 0.0000000000000000e+00  -8.5605101299128744e-04 -1.9983019529654584e-03 0.0000000000000000e+00  0.0000000000000000e+00 0.0000000000000000e+00 0.0000000000000000e+00  0.0000000000000000e+00 0.0000000000000000e+00 0.0000000000000000e+00  -8.7561013146975281e-04 3.1805336431579533e-03 0.0000000000000000e+00  -2.1503816137300657e-03 3.1489725247611194e-03 0.0000000000000000e+00  -3.3710587192073323e-03 2.9733127935262392e-03 0.0000000000000000e+00  -4.5049226807784481e-03 2.7141371511787051e-03 0.0000000000000000e+00  -5.5206318495977921e-03 2.3859594742320573e-03 0.0000000000000000e+00  -6.3933383717480665e-03 1.9983085929528347e-03 0.0000000000000000e+00  -7.1019681110956962e-03 1.5611986174178868e-03 0.0000000000000000e+00  -7.6296440564042256e-03 1.0851063472016459e-03 0.0000000000000000e+00  -7.9635955840209830e-03 5.8069540210485093e-04 0.0000000000000000e+00  -8.0950493820202678e-03 5.8794529604100158e-05 0.0000000000000000e+00  -8.0191963636340319e-03 -4.6945206025624783e-04 0.0000000000000000e+00  -7.7353136471309302e-03 -9.9233868241778303e-04 0.0000000000000000e+00  -7.2470783580461757e-03 -1.4973655634731449e-03 0.0000000000000000e+00  -6.5630483194428942e-03 -1.9711454576207153e-03 0.0000000000000000e+00  -5.6972216721813598e-03 -2.3995808834439596e-03 0.0000000000000000e+00  -4.6695812966938985e-03 -2.7683078538944649e-03 0.0000000000000000e+00  -3.5054587829503625e-03 -3.0622092255663119e-03 0.0000000000000000e+00  -2.2413717202784487e-03 -3.2608295988904908e-03 0.0000000000000000e+00  -9.1033885999233116e-04 -3.2692756222540741e-03 0.0000000000000000e+00  0.0000000000000000e+00 0.0000000000000000e+00 0.0000000000000000e+00  0.0000000000000000e+00 0.0000000000000000e+00 0.0000000000000000e+00  -9.4639015454624112e-04 4.4892582679079409e-03 0.0000000000000000e+00  -2.3222455485644358e-03 4.4501012848618057e-03 0.0000000000000000e+00  -3.6394607169071207e-03 4.2008816034862749e-03 0.0000000000000000e+00  -4.8612494352067584e-03 3.8333675879391967e-03 0.0000000000000000e+00  -5.9542629623482671e-03 3.3686847196650435e-03 0.0000000000000000e+00  -6.8924005031953343e-03 2.8209566507297348e-03 0.0000000000000000e+00  -7.6539611898653916e-03 2.2046119601415435e-03 0.0000000000000000e+00  -8.2218717858094821e-03 1.5344072574371107e-03 0.0000000000000000e+00  -8.5833078464861608e-03 8.2506101428540704e-04 0.0000000000000000e+00  -8.7293226193482371e-03 9.1261468580719845e-05 0.0000000000000000e+00  -8.6546232881497334e-03 -6.5201692843863798e-04 0.0000000000000000e+00  -8.3576241826727928e-03 -1.3890186540793594e-03 0.0000000000000000e+00  -7.8408469765152405e-03 -2.1027075384274824e-03 0.0000000000000000e+00  -7.1116528695326356e-03 -2.7744677340794531e-03 0.0000000000000000e+00  -6.1831938571645659e-03 -3.3842263683900291e-03 0.0000000000000000e+00  -5.0754395623091933e-03 -3.9110580190606769e-03 0.0000000000000000e+00  -3.8148326053603107e-03 -4.3327873601396085e-03 0.0000000000000000e+00  -2.4412727144130343e-03 -4.6196071926284362e-03 0.0000000000000000e+00  -9.9123662077811527e-04 -4.6395754815338223e-03 0.0000000000000000e+00  0.0000000000000000e+00 0.0000000000000000e+00 0.0000000000000000e+00  0.0000000000000000e+00 0.0000000000000000e+00 0.0000000000000000e+00  -1.0432129003858097e-03 5.9179356194612454e-03 0.0000000000000000e+00  -2.5576247882964616e-03 5.8683742180812709e-03 0.0000000000000000e+00  -4.0058959113021498e-03 5.5368053649908463e-03 0.0000000000000000e+00  -5.3463137239372002e-03 5.0491378924077028e-03 0.0000000000000000e+00  -6.5428202108038618e-03 4.4343003248852016e-03 0.0000000000000000e+00  -7.5678018882709584e-03 3.7119213819884300e-03 0.0000000000000000e+00  -8.3991082142197779e-03 2.9015357329965521e-03 0.0000000000000000e+00  -9.0198469646086670e-03 2.0225295776628701e-03 0.0000000000000000e+00  -9.4175427959202647e-03 1.0936497492595777e-03 0.0000000000000000e+00  -9.5833259447718304e-03 1.3310577658928621e-04 0.0000000000000000e+00  -9.5113812446828098e-03 -8.4082298501549774e-04 0.0000000000000000e+00  -9.1988597184454509e-03 -1.8088669055764547e-03 0.0000000000000000e+00  -8.6463765566701777e-03 -2.7497900250228807e-03 0.0000000000000000e+00  -7.8591097021912821e-03 -3.6396736860723087e-03 0.0000000000000000e+00  -6.8483723329786769e-03 -4.4518211343908369e-03 0.0000000000000000e+00  -5.6334487428048542e-03 -5.1574693627043748e-03 0.0000000000000000e+00  -4.2418311190401429e-03 -5.7255011488213719e-03 0.0000000000000000e+00  -2.7180955869578255e-03 -6.1143877923133735e-03 0.0000000000000000e+00  -1.1035604469421636e-03 -6.1498323119696784e-03 0.0000000000000000e+00  0.0000000000000000e+00 0.0000000000000000e+00 0.0000000000000000e+00  0.0000000000000000e+00 0.0000000000000000e+00 0.0000000000000000e+00  -1.1697632722016509e-03 7.5059842424048248e-03 0.0000000000000000e+00  -2.8651418511054082e-03 7.4424660220523270e-03 0.0000000000000000e+00  -4.4833045258199948e-03 7.0161671160523771e-03 0.0000000000000000e+00  -5.9760937621075308e-03 6.3916807034491534e-03 0.0000000000000000e+00  -7.3039631478882304e-03 5.6077097630469553e-03 0.0000000000000000e+00  -8.4378172729637491e-03 4.6909205877171522e-03 0.0000000000000000e+00  -9.3556203216763507e-03 3.6670092740833204e-03 0.0000000000000000e+00  -1.0041519060091986e-02 2.5604678521673860e-03 0.0000000000000000e+00  -1.0484241821887667e-02 1.3939444937053379e-03 0.0000000000000000e+00  -1.0675581963945602e-02 1.8853246065142883e-04 0.0000000000000000e+00  -1.0609312306620112e-02 -1.0351469663340050e-03 0.0000000000000000e+00  -1.0280826946863662e-02 -2.2553387714720464e-03 0.0000000000000000e+00  -9.6877159748901941e-03 -3.4473824367898063e-03 0.0000000000000000e+00  -8.8313556416325864e-03 -4.5822293746399182e-03 0.0000000000000000e+00  -7.7194121028837989e-03 -5.6258165112379908e-03 0.0000000000000000e+00  -6.3689911618874081e-03 -6.5397144055879897e-03 0.0000000000000000e+00  -4.8080047706717819e-03 -7.2809838584480639e-03 0.0000000000000000e+00  -3.0868374791048129e-03 -7.7925864882216218e-03 0.0000000000000000e+00  -1.2537986977185661e-03 -7.8495740930516686e-03 0.0000000000000000e+00  0.0000000000000000e+00 0.0000000000000000e+00 0.0000000000000000e+00  0.0000000000000000e+00 0.0000000000000000e+00 0.0000000000000000e+00  -1.3313541479796163e-03 9.2995705075290362e-03 0.0000000000000000e+00  -3.2571457590517871e-03 9.2163781528272013e-03 0.0000000000000000e+00  -5.0895491049768168e-03 8.6775971076513744e-03 0.0000000000000000e+00  -6.7719075496853265e-03 7.8929969473846198e-03 0.0000000000000000e+00  -8.2604130262166967e-03 6.9140642000853868e-03 0.0000000000000000e+00  -9.5249378357263256e-03 5.7768533385074983e-03 0.0000000000000000e+00  -1.0544821220344402e-02 4.5147981259119046e-03 0.0000000000000000e+00  -1.1306890116171798e-02 3.1581215112981998e-03 0.0000000000000000e+00  -1.1802655877721420e-02 1.7330465256971065e-03 0.0000000000000000e+00  -1.2025710510844679e-02 2.6242347678759288e-04 0.0000000000000000e+00  -1.1969807859538906e-02 -1.2324489816299999e-03 0.0000000000000000e+00  -1.1628026275052394e-02 -2.7291770459703813e-03 0.0000000000000000e+00  -1.0993326109118663e-02 -4.2012496919498479e-03 0.0000000000000000e+00  -1.0060722296438770e-02 -5.6152413107655522e-03 0.0000000000000000e+00  -8.8310991636949328e-03 -6.9290803369706083e-03 0.0000000000000000e+00  -7.3164328376879775e-03 -8.0922098033338764e-03 0.0000000000000000e+00  -5.5432455498845038e-03 -9.0454959941449632e-03 0.0000000000000000e+00  -3.5686719845312606e-03 -9.7103430107101877e-03 0.0000000000000000e+00  -1.4509525818201189e-03 -9.7993055537679494e-03 0.0000000000000000e+00  0.0000000000000000e+00 0.0000000000000000e+00 0.0000000000000000e+00  0.0000000000000000e+00 0.0000000000000000e+00 0.0000000000000000e+00  -1.5357095664424829e-03 1.1353813208066114e-02 0.0000000000000000e+00  -3.7514712679537860e-03 1.1241738963431919e-02 0.0000000000000000e+00  -5.8499745497933072e-03 1.0564947689621480e-02 0.0000000000000000e+00  -7.7632365587406230e-03 9.5875815182060280e-03 0.0000000000000000e+00  -9.4425492955051895e-03 8.3786080683883116e-03 0.0000000000000000e+00  -1.0857970641958798e-02 6.9870970529495625e-03 0.0000000000000000e+00  -1.1992625618935684e-02 5.4565161711062748e-03 0.0000000000000000e+00  -1.2838900959206680e-02 3.8235870019315697e-03 0.0000000000000000e+00  -1.3393780137478665e-02 2.1174208098707209e-03 0.0000000000000000e+00  -1.3654637769110986e-02 3.6074356285967891e-04 0.0000000000000000e+00  -1.3616097299807227e-02 -1.4271888138568179e-03 0.0000000000000000e+00  -1.3268402093418180e-02 -3.2264615682056838e-03 0.0000000000000000e+00  -1.2597719943743485e-02 -5.0116434489569936e-03 0.0000000000000000e+00  -1.1588841227918440e-02 -6.7468680519001930e-03 0.0000000000000000e+00  -1.0230654052994642e-02 -8.3819844193099950e-03 0.0000000000000000e+00  -8.5244971663829307e-03 -9.8512581321189008e-03 0.0000000000000000e+00  -6.4913670621861248e-03 -1.1072817965679065e-02 0.0000000000000000e+00  -4.1953578982013148e-03 -1.1936771326526310e-02 0.0000000000000000e+00  -1.7086155842417762e-03 -1.2075368652404132e-02 0.0000000000000000e+00  0.0000000000000000e+00 0.0000000000000000e+00 0.0000000000000000e+00  0.0000000000000000e+00 0.0000000000000000e+00 0.0000000000000000e+00  -1.7942840038287194e-03 1.3736980240799909e-02 0.0000000000000000e+00  -4.3741865042357022e-03 1.3580954010263312e-02 0.0000000000000000e+00  -6.8008605225957693e-03 1.2728749433265386e-02 0.0000000000000000e+00  -8.9910552351342658e-03 1.1512197145671752e-02 0.0000000000000000e+00  -1.0890921474569232e-02 1.0025156259156847e-02 0.0000000000000000e+00  -1.2473353163284710e-02 8.3352614757990565e-03 0.0000000000000000e+00  -1.3729586164089695e-02 6.4992562833014319e-03 0.0000000000000000e+00  -1.4662355007657777e-02 4.5611729417366085e-03 0.0000000000000000e+00  -1.5278424535153075e-02 2.5516874071520135e-03 0.0000000000000000e+00  -1.5582164415546345e-02 4.9040629975771906e-04 0.0000000000000000e+00  -1.5570760428617599e-02 -1.6096627730036828e-03 0.0000000000000000e+00  -1.5231393238833033e-02 -3.7360434211649489e-03 0.0000000000000000e+00  -1.4540812060133485e-02 -5.8694762999718375e-03 0.0000000000000000e+00  -1.3468114072023057e-02 -7.9758190633052780e-03 0.0000000000000000e+00  -1.1981878731075937e-02 -9.9983965912037367e-03 0.0000000000000000e+00  -1.0062891567518557e-02 -1.1853173087673426e-02 0.0000000000000000e+00  -7.7178317637808221e-03 -1.3426039361968787e-02 0.0000000000000000e+00  -5.0157547599748954e-03 -1.4559825072265978e-02 0.0000000000000000e+00  -2.0479658575910244e-03 -1.4778525164400650e-02 0.0000000000000000e+00  0.0000000000000000e+00 0.0000000000000000e+00 0.0000000000000000e+00  0.0000000000000000e+00 0.0000000000000000e+00 0.0000000000000000e+00  -2.1245136213761755e-03 1.6536916807189560e-02 0.0000000000000000e+00  -5.1643175835121543e-03 1.6311777202055920e-02 0.0000000000000000e+00  -7.9951983744086415e-03 1.5227972991514309e-02 0.0000000000000000e+00  -1.0513135071555491e-02 1.3704908300722393e-02 0.0000000000000000e+00  -1.2660010269174609e-02 1.1873169442748344e-02 0.0000000000000000e+00  -1.4416908699184990e-02 9.8273333430387733e-03 0.0000000000000000e+00  -1.5790688223619918e-02 7.6417325934283447e-03 0.0000000000000000e+00  -1.6802075679631805e-02 5.3682184151545671e-03 0.0000000000000000e+00  -1.7474139512051907e-02 3.0365731258992184e-03 0.0000000000000000e+00  -1.7823074706407212e-02 6.5871423834020241e-04 0.0000000000000000e+00  -1.7851507645210849e-02 -1.7647201503214081e-03 0.0000000000000000e+00  -1.7544109981832944e-02 -4.2360689291242957e-03 0.0000000000000000e+00  -1.6865638053934390e-02 -6.7505137243799550e-03 0.0000000000000000e+00  -1.5762497777245130e-02 -9.2836972275414150e-03 0.0000000000000000e+00  -1.4170512799756393e-02 -1.1777842885255251e-02 0.0000000000000000e+00  -1.2032697664795543e-02 -1.4129336141796350e-02 0.0000000000000000e+00  -9.3231381426836755e-03 -1.6178962574228271e-02 0.0000000000000000e+00  -6.1076859900189252e-03 -1.7695488009989307e-02 0.0000000000000000e+00  -2.5030020245772710e-03 -1.8048071874751923e-02 0.0000000000000000e+00  0.0000000000000000e+00 0.0000000000000000e+00 0.0000000000000000e+00  0.0000000000000000e+00 0.0000000000000000e+00 0.0000000000000000e+00  -2.5538502156480384e-03 1.9871414246586616e-02 0.0000000000000000e+00  -6.1820768475026894e-03 1.9534225178338381e-02 0.0000000000000000e+00  -9.5123389716453427e-03 1.8131944167982427e-02 0.0000000000000000e+00  -1.2412417839658647e-02 1.6202476642422265e-02 0.0000000000000000e+00  -1.4823677038779230e-02 1.3932297117869698e-02 0.0000000000000000e+00  -1.6745960802643459e-02 1.1455222241102469e-02 0.0000000000000000e+00  -1.8214553921819036e-02 8.8682342317438455e-03 0.0000000000000000e+00  -1.9279910685125145e-02 6.2302557368321011e-03 0.0000000000000000e+00  -1.9990636388822890e-02 3.5656703678288429e-03 0.0000000000000000e+00  -2.0381383347529862e-02 8.7200370456848449e-04 0.0000000000000000e+00  -2.0464604835528498e-02 -1.8707534071114047e-03 0.0000000000000000e+00  -2.0224590822976403e-02 -4.6898231314624192e-03 0.0000000000000000e+00  -1.9612849014230209e-02 -7.6071168934117740e-03 0.0000000000000000e+00  -1.8545915190433339e-02 -1.0622451582665903e-02 0.0000000000000000e+00  -1.6910412396734551e-02 -1.3690832850404667e-02 0.0000000000000000e+00  -1.4582797053798370e-02 -1.6694959631753440e-02 0.0000000000000000e+00  -1.1466529326154244e-02 -1.9415109176230537e-02 0.0000000000000000e+00  -7.6002392686401439e-03 -2.1500945899347656e-02 0.0000000000000000e+00  -3.1308118742987574e-03 -2.2085747497208225e-02 0.0000000000000000e+00  0.0000000000000000e+00 0.0000000000000000e+00 0.0000000000000000e+00  0.0000000000000000e+00 0.0000000000000000e+00 0.0000000000000000e+00  -3.1273317775677568e-03 2.3905392738159982e-02 0.0000000000000000e+00  -7.5236304255503501e-03 2.3381299677757889e-02 0.0000000000000000e+00  -1.1474399516144223e-02 2.1521739508094707e-02 0.0000000000000000e+00  -1.4810129213635259e-02 1.9034260349108628e-02 0.0000000000000000e+00  -1.7482617997145840e-02 1.6192412893369614e-02 0.0000000000000000e+00  -1.9531261906825373e-02 1.3186272686294687e-02 0.0000000000000000e+00  -2.1041257534584194e-02 1.0139625831774772e-02 0.0000000000000000e+00  -2.2109930607807936e-02 7.1141910688593659e-03 0.0000000000000000e+00  -2.2823300505566281e-02 4.1207629193260537e-03 0.0000000000000000e+00  -2.3242421043092664e-02 1.1330388995590868e-03 0.0000000000000000e+00  -2.3395369581074611e-02 -1.8997887750013592e-03 0.0000000000000000e+00  -2.3270654683732669e-02 -5.0417986659273741e-03 0.0000000000000000e+00  -2.2809090276443716e-02 -8.3578402993276912e-03 0.0000000000000000e+00  -2.1894909563208356e-02 -1.1895809690195724e-02 0.0000000000000000e+00  -2.0348852551617419e-02 -1.5653661311278926e-02 0.0000000000000000e+00  -1.7932623326407767e-02 -1.9522603818414655e-02 0.0000000000000000e+00  -1.4406070693877273e-02 -2.3211775367154335e-02 0.0000000000000000e+00  -9.7199465623647834e-03 -2.6188477574527632e-02 0.0000000000000000e+00  -4.0408473913406190e-03 -2.7207671692678802e-02 0.0000000000000000e+00  0.0000000000000000e+00 0.0000000000000000e+00 0.0000000000000000e+00  0.0000000000000000e+00 0.0000000000000000e+00 0.0000000000000000e+00  -3.9224234208305279e-03 2.8881730355666647e-02 0.0000000000000000e+00  -9.3485180717394253e-03 2.8035561704728623e-02 0.0000000000000000e+00  -1.4074738113158342e-02 2.5488802107051751e-02 0.0000000000000000e+00  -1.7885901792489084e-02 2.2208644214115142e-02 0.0000000000000000e+00  -2.0773398344110489e-02 1.8605585282484672e-02 0.0000000000000000e+00  -2.2857031133121871