<?xml version="1.0"?>
<VTKFile type="UnstructuredGrid"  version="0.1"  >
<UnstructuredGrid>
<Piece  NumberOfPoints="441" NumberOfCells="800">
<Points>
<DataArray  type="Float64"  NumberOfComponents="3"  format="ascii">0 0 0  0.05 0 0  0.1 0 0  0.15 0 0  0.2 0 0  0.25 0 0  0.3 0 0  0.35 0 0  0.4 0 0  0.45 0 0  0.5 0 0  0.55 0 0  0.6 0 0  0.65 0 0  0.7 0 0  0.75 0 0  0.8 0 0  0.85 0 0  0.9 0 0  0.95 0 0  1 0 0  0 0.05 0  0.05 0.05 0  0.1 0.05 0  0.15 0.05 0  0.2 0.05 0  0.25 0.05 0  0.3 0.05 0  0.35 0.05 0  0.4 0.05 0  0.45 0.05 0  0.5 0.05 0  0.55 0.05 0  0.6 0.05 0  0.65 0.05 0  0.7 0.05 0  0.75 0.05 0  0.8 0.05 0  0.85 0.05 0  0.9 0.05 0  0.95 0.05 0  1 0.05 0  0 0.1 0  0.05 0.1 0  0.1 0.1 0  0.15 0.1 0  0.2 0.1 0  0.25 0.1 0  0.3 0.1 0  0.35 0.1 0  0.4 0.1 0  0.45 0.1 0  0.5 0.1 0  0.55 0.1 0  0.6 0.1 0  0.65 0.1 0  0.7 0.1 0  0.75 0.1 0  0.8 0.1 0  0.85 0.1 0  0.9 0.1 0  0.95 0.1 0  1 0.1 0  0 0.15 0  0.05 0.15 0  0.1 0.15 0  0.15 0.15 0  0.2 0.15 0  0.25 0.15 0  0.3 0.15 0  0.35 0.15 0  0.4 0.15 0  0.45 0.15 0  0.5 0.15 0  0.55 0.15 0  0.6 0.15 0  0.65 0.15 0  0.7 0.15 0  0.75 0.15 0  0.8 0.15 0  0.85 0.15 0  0.9 0.15 0  0.95 0.15 0  1 0.15 0  0 0.2 0  0.05 0.2 0  0.1 0.2 0  0.15 0.2 0  0.2 0.2 0  0.25 0.2 0  0.3 0.2 0  0.35 0.2 0  0.4 0.2 0  0.45 0.2 0  0.5 0.2 0  0.55 0.2 0  0.6 0.2 0  0.65 0.2 0  0.7 0.2 0  0.75 0.2 0  0.8 0.2 0  0.85 0.2 0  0.9 0.2 0  0.95 0.2 0  1 0.2 0  0 0.25 0  0.05 0.25 0  0.1 0.25 0  0.15 0.25 0  0.2 0.25 0  0.25 0.25 0  0.3 0.25 0  0.35 0.25 0  0.4 0.25 0  0.45 0.25 0  0.5 0.25 0  0.55 0.25 0  0.6 0.25 0  0.65 0.25 0  0.7 0.25 0  0.75 0.25 0  0.8 0.25 0  0.85 0.25 0  0.9 0.25 0  0.95 0.25 0  1 0.25 0  0 0.3 0  0.05 0.3 0  0.1 0.3 0  0.15 0.3 0  0.2 0.3 0  0.25 0.3 0  0.3 0.3 0  0.35 0.3 0  0.4 0.3 0  0.45 0.3 0  0.5 0.3 0  0.55 0.3 0  0.6 0.3 0  0.65 0.3 0  0.7 0.3 0  0.75 0.3 0  0.8 0.3 0  0.85 0.3 0  0.9 0.3 0  0.95 0.3 0  1 0.3 0  0 0.35 0  0.05 0.35 0  0.1 0.35 0  0.15 0.35 0  0.2 0.35 0  0.25 0.35 0  0.3 0.35 0  0.35 0.35 0  0.4 0.35 0  0.45 0.35 0  0.5 0.35 0  0.55 0.35 0  0.6 0.35 0  0.65 0.35 0  0.7 0.35 0  0.75 0.35 0  0.8 0.35 0  0.85 0.35 0  0.9 0.35 0  0.95 0.35 0  1 0.35 0  0 0.4 0  0.05 0.4 0  0.1 0.4 0  0.15 0.4 0  0.2 0.4 0  0.25 0.4 0  0.3 0.4 0  0.35 0.4 0  0.4 0.4 0  0.45 0.4 0  0.5 0.4 0  0.55 0.4 0  0.6 0.4 0  0.65 0.4 0  0.7 0.4 0  0.75 0.4 0  0.8 0.4 0  0.85 0.4 0  0.9 0.4 0  0.95 0.4 0  1 0.4 0  0 0.45 0  0.05 0.45 0  0.1 0.45 0  0.15 0.45 0  0.2 0.45 0  0.25 0.45 0  0.3 0.45 0  0.35 0.45 0  0.4 0.45 0  0.45 0.45 0  0.5 0.45 0  0.55 0.45 0  0.6 0.45 0  0.65 0.45 0  0.7 0.45 0  0.75 0.45 0  0.8 0.45 0  0.85 0.45 0  0.9 0.45 0  0.95 0.45 0  1 0.45 0  0 0.5 0  0.05 0.5 0  0.1 0.5 0  0.15 0.5 0  0.2 0.5 0  0.25 0.5 0  0.3 0.5 0  0.35 0.5 0  0.4 0.5 0  0.45 0.5 0  0.5 0.5 0  0.55 0.5 0  0.6 0.5 0  0.65 0.5 0  0.7 0.5 0  0.75 0.5 0  0.8 0.5 0  0.85 0.5 0  0.9 0.5 0  0.95 0.5 0  1 0.5 0  0 0.55 0  0.05 0.55 0  0.1 0.55 0  0.15 0.55 0  0.2 0.55 0  0.25 0.55 0  0.3 0.55 0  0.35 0.55 0  0.4 0.55 0  0.45 0.55 0  0.5 0.55 0  0.55 0.55 0  0.6 0.55 0  0.65 0.55 0  0.7 0.55 0  0.75 0.55 0  0.8 0.55 0  0.85 0.55 0  0.9 0.55 0  0.95 0.55 0  1 0.55 0  0 0.6 0  0.05 0.6 0  0.1 0.6 0  0.15 0.6 0  0.2 0.6 0  0.25 0.6 0  0.3 0.6 0  0.35 0.6 0  0.4 0.6 0  0.45 0.6 0  0.5 0.6 0  0.55 0.6 0  0.6 0.6 0  0.65 0.6 0  0.7 0.6 0  0.75 0.6 0  0.8 0.6 0  0.85 0.6 0  0.9 0.6 0  0.95 0.6 0  1 0.6 0  0 0.65 0  0.05 0.65 0  0.1 0.65 0  0.15 0.65 0  0.2 0.65 0  0.25 0.65 0  0.3 0.65 0  0.35 0.65 0  0.4 0.65 0  0.45 0.65 0  0.5 0.65 0  0.55 0.65 0  0.6 0.65 0  0.65 0.65 0  0.7 0.65 0  0.75 0.65 0  0.8 0.65 0  0.85 0.65 0  0.9 0.65 0  0.95 0.65 0  1 0.65 0  0 0.7 0  0.05 0.7 0  0.1 0.7 0  0.15 0.7 0  0.2 0.7 0  0.25 0.7 0  0.3 0.7 0  0.35 0.7 0  0.4 0.7 0  0.45 0.7 0  0.5 0.7 0  0.55 0.7 0  0.6 0.7 0  0.65 0.7 0  0.7 0.7 0  0.75 0.7 0  0.8 0.7 0  0.85 0.7 0  0.9 0.7 0  0.95 0.7 0  1 0.7 0  0 0.75 0  0.05 0.75 0  0.1 0.75 0  0.15 0.75 0  0.2 0.75 0  0.25 0.75 0  0.3 0.75 0  0.35 0.75 0  0.4 0.75 0  0.45 0.75 0  0.5 0.75 0  0.55 0.75 0  0.6 0.75 0  0.65 0.75 0  0.7 0.75 0  0.75 0.75 0  0.8 0.75 0  0.85 0.75 0  0.9 0.75 0  0.95 0.75 0  1 0.75 0  0 0.8 0  0.05 0.8 0  0.1 0.8 0  0.15 0.8 0  0.2 0.8 0  0.25 0.8 0  0.3 0.8 0  0.35 0.8 0  0.4 0.8 0  0.45 0.8 0  0.5 0.8 0  0.55 0.8 0  0.6 0.8 0  0.65 0.8 0  0.7 0.8 0  0.75 0.8 0  0.8 0.8 0  0.85 0.8 0  0.9 0.8 0  0.95 0.8 0  1 0.8 0  0 0.85 0  0.05 0.85 0  0.1 0.85 0  0.15 0.85 0  0.2 0.85 0  0.25 0.85 0  0.3 0.85 0  0.35 0.85 0  0.4 0.85 0  0.45 0.85 0  0.5 0.85 0  0.55 0.85 0  0.6 0.85 0  0.65 0.85 0  0.7 0.85 0  0.75 0.85 0  0.8 0.85 0  0.85 0.85 0  0.9 0.85 0  0.95 0.85 0  1 0.85 0  0 0.9 0  0.05 0.9 0  0.1 0.9 0  0.15 0.9 0  0.2 0.9 0  0.25 0.9 0  0.3 0.9 0  0.35 0.9 0  0.4 0.9 0  0.45 0.9 0  0.5 0.9 0  0.55 0.9 0  0.6 0.9 0  0.65 0.9 0  0.7 0.9 0  0.75 0.9 0  0.8 0.9 0  0.85 0.9 0  0.9 0.9 0  0.95 0.9 0  1 0.9 0  0 0.95 0  0.05 0.95 0  0.1 0.95 0  0.15 0.95 0  0.2 0.95 0  0.25 0.95 0  0.3 0.95 0  0.35 0.95 0  0.4 0.95 0  0.45 0.95 0  0.5 0.95 0  0.55 0.95 0  0.6 0.95 0  0.65 0.95 0  0.7 0.95 0  0.75 0.95 0  0.8 0.95 0  0.85 0.95 0  0.9 0.95 0  0.95 0.95 0  1 0.95 0  0 1 0  0.05 1 0  0.1 1 0  0.15 1 0  0.2 1 0  0.25 1 0  0.3 1 0  0.35 1 0  0.4 1 0  0.45 1 0  0.5 1 0  0.55 1 0  0.6 1 0  0.65 1 0  0.7 1 0  0.75 1 0  0.8 1 0  0.85 1 0  0.9 1 0  0.95 1 0  1 1 0  </DataArray>
</Points>
<Cells>
[...]
<PointData  Vectors="f_137"> 
<DataArray  type="Float64"  Name="f_137"  NumberOfComponents="3" format="ascii">0.0000000000000000e+00 0.0000000000000000e+00 0.0000000000000000e+00  0.0000000000000000e+00 0.0000000000000000e+00 0.0000000000000000e+00  0.0000000000000000e+00 0.0000000000000000e+00 0.0000000000000000e+00  0.0000000000000000e+00 0.0000000000000000e+00 0.0000000000000000e+00  0.0000000000000000e+00 0.0000000000000000e+00 0.0000000000000000e+00  0.0000000000000000e+00 0.0000000000000000e+00 0.0000000000000000e+00  0.0000000000000000e+00 0.0000000000000000e+00 0.0000000000000000e+00  0.0000000000000000e+00 0.0000000000000000e+00 0.0000000000000000e+00  0.0000000000000000e+00 0.0000000000000000e+00 0.0000000000000000e+00  0.0000000000000000e+00 0.0000000000000000e+00 0.0000000000000000e+00  0.0000000000000000e+00 0.0000000000000000e+00 0.0000000000000000e+00  0.0000000000000000e+00 0.0000000000000000e+00 0.0000000000000000e+00  0.0000000000000000e+00 0.0000000000000000e+00 0.0000000000000000e+00  0.0000000000000000e+00 0.0000000000000000e+00 0.0000000000000000e+00  0.0000000000000000e+00 0.0000000000000000e+00 0.0000000000000000e+00  0.0000000000000000e+00 0.0000000000000000e+00 0.0000000000000000e+00  0.0000000000000000e+00 0.0000000000000000e+00 0.0000000000000000e+00  0.0000000000000000e+00 0.0000000000000000e+00 0.0000000000000000e+00  0.0000000000000000e+00 0.0000000000000000e+00 0.0000000000000000e+00  0.0000000000000000e+00 0.0000000000000000e+00 0.0000000000000000e+00  0.0000000000000000e+00 0.0000000000000000e+00 0.0000000000000000e+00  0.0000000000000000e+00 0.0000000000000000e+00 0.0000000000000000e+00  -7.9858581723535522e-04 7.9002885757844480e-04 0.0000000000000000e+00  -1.9688738998829337e-03 7.8285504907183486e-04 0.0000000000000000e+00  -3.0881797157858194e-03 7.3742551223618510e-04 0.0000000000000000e+00  -4.1270988784577294e-03 6.7341692437681438e-04 0.0000000000000000e+00  -5.0592193017033422e-03 5.9225459858403581e-04 0.0000000000000000e+00  -5.8605405247273640e-03 4.9610212994049554e-04 0.0000000000000000e+00  -6.5109937756006719e-03 3.8734753012173890e-04 0.0000000000000000e+00  -6.9941782229475478e-03 2.6853773176439865e-04 0.0000000000000000e+00  -7.2975999577048478e-03 1.4234379766707352e-04 0.0000000000000000e+00  -7.4127990346951715e-03 1.1546122893213564e-05 0.0000000000000000e+00  -7.3354758435006193e-03 -1.2094207711842336e-04 0.0000000000000000e+00  -7.0656656860917195e-03 -2.5203639327933588e-04 0.0000000000000000e+00  -6.6079684508818341e-03 -3.7845265673407499e-04 0.0000000000000000e+00  -5.9718072024058889e-03 -4.9671664025206102e-04 0.0000000000000000e+00  -5.1716281370124562e-03 -6.0324526187362649e-04 0.0000000000000000e+00  -4.2269351717284598e-03 -6.9446663591954633e-04 0.0000000000000000e+00  -3.1623211159519287e-03 -7.6637902495983430e-04 0.0000000000000000e+00  -2.0103830460263391e-03 -8.1455488798374946e-04 0.0000000000000000e+00  -7.9656902479069121e-04 -7.9407207670212409e-04 0.0000000000000000e+00  0.0000000000000000e+00 0.0000000000000000e+00 0.0000000000000000e+00  0.0000000000000000e+00 0.0000000000000000e+00 0.0000000000000000e+00  -8.4169561238049543e-04 1.9910757486194556e-03 0.0000000000000000e+00  -2.0770755041149328e-03 1.9770574180327538e-03 0.0000000000000000e+00  -3.2633776825837209e-03 1.8683372515122712e-03 0.0000000000000000e+00  -4.3663313672252973e-03 1.7067225227781493e-03 0.0000000000000000e+00  -5.3556498018446164e-03 1.5018114801559855e-03 0.0000000000000000e+00  -6.2066116499090180e-03 1.2591408900860781e-03 0.0000000000000000e+00  -6.8981208280575685e-03 9.8482826753715376e-04 0.0000000000000000e+00  -7.4130269879102238e-03 6.8538833157935392e-04 0.0000000000000000e+00  -7.7382566985810921e-03 3.6756493982748685e-04 0.0000000000000000e+00  -7.8648608468811811e-03 3.8307081592885901e-05 0.0000000000000000e+00  -7.7880993667594038e-03 -2.9516223964395661e-04 0.0000000000000000e+00  -7.5076131460831497e-03 -6.2523060947217276e-04 0.0000000000000000e+00  -7.0276998172874817e-03 -9.4379733962985854e-04 0.0000000000000000e+00  -6.3576623455225117e-03 -1.2422627654386940e-03 0.0000000000000000e+00  -5.5121550010459579e-03 -1.5116816960893992e-03 0.0000000000000000e+00  -4.5115483269611090e-03 -1.7430878057338895e-03 0.0000000000000000e+00  -3.3810130130993671e-03 -1.9271362656501038e-03 0.0000000000000000e+00  -2.1555587551482279e-03 -2.0490393645420666e-03 0.0000000000000000e+00  -8.7150755842681151e-04 -2.0419848183634314e-03 0.0000000000000000e+00  0.0000000000000000e+00 0.0000000000000000e+00 0.0000000000000000e+00  0.0000000000000000e+00 0.0000000000000000e+00 0.0000000000000000e+00  -8.8883680822047638e-04 3.2447547207762563e-03 0.0000000000000000e+00  -2.1979999090687772e-03 3.2272302172792005e-03 0.0000000000000000e+00  -3.4529935566281252e-03 3.0488584577472665e-03 0.0000000000000000e+00  -4.6193390045342021e-03 2.7844202872081406e-03 0.0000000000000000e+00  -5.6647480540357098e-03 2.4492978316096661e-03 0.0000000000000000e+00  -6.5636406986601175e-03 2.0530286938359277e-03 0.0000000000000000e+00  -7.2942471742841178e-03 1.6057628945096681e-03 0.0000000000000000e+00  -7.8390726103155332e-03 1.1181415343270132e-03 0.0000000000000000e+00  -8.1848074828657844e-03 6.0102124343742601e-04 0.0000000000000000e+00  -8.3222275483688813e-03 6.5461251397147785e-05 0.0000000000000000e+00  -8.2461740008370563e-03 -4.7711576444646892e-04 0.0000000000000000e+00  -7.9556952435533099e-03 -1.0146654768794564e-03 0.0000000000000000e+00  -7.4543885578641856e-03 -1.5342788256369217e-03 0.0000000000000000e+00  -6.7509156439036063e-03 -2.0220844260460192e-03 0.0000000000000000e+00  -5.8595981009133859e-03 -2.4634365641173568e-03 0.0000000000000000e+00  -4.8010223994770021e-03 -2.8434214724027268e-03 0.0000000000000000e+00  -3.6012978984693296e-03 -3.1464162627735377e-03 0.0000000000000000e+00  -2.2983275633830743e-03 -3.3495674452902638e-03 0.0000000000000000e+00  -9.2756443726027147e-04 -3.3470753555053150e-03 0.0000000000000000e+00  0.0000000000000000e+00 0.0000000000000000e+00 0.0000000000000000e+00  0.0000000000000000e+00 0.0000000000000000e+00 0.0000000000000000e+00  -9.6026490200579911e-04 4.5842467363891044e-03 0.0000000000000000e+00  -2.3727527066899107e-03 4.5641923905501772e-03 0.0000000000000000e+00  -3.7265401789186242e-03 4.3110941229726569e-03 0.0000000000000000e+00  -4.9830201707650049e-03 3.9358808043279741e-03 0.0000000000000000e+00  -6.1078167662274759e-03 3.4610393303555285e-03 0.0000000000000000e+00  -7.0740753414775216e-03 2.9007490512868027e-03 0.0000000000000000e+00  -7.8593673217380970e-03 2.2696331817183284e-03 0.0000000000000000e+00  -8.4459717895890695e-03 1.5826869119494255e-03 0.0000000000000000e+00  -8.8204887854763485e-03 8.5490094667136176e-04 0.0000000000000000e+00  -8.9734726577499462e-03 1.0128123886279706e-04 0.0000000000000000e+00  -8.8992169893690291e-03 -6.6281722542205115e-04 0.0000000000000000e+00  -8.5958263879910238e-03 -1.4211736667940483e-03 0.0000000000000000e+00  -8.0656490592755682e-03 -2.1561802961604045e-03 0.0000000000000000e+00  -7.3160558181938114e-03 -2.8485295526073724e-03 0.0000000000000000e+00  -6.3604459481426288e-03 -3.4773446170989308e-03 0.0000000000000000e+00  -5.2193647464118652e-03 -4.0208638602347007e-03 0.0000000000000000e+00  -3.9200518022066482e-03 -4.4561323629775306e-03 0.0000000000000000e+00  -2.5039374145393611e-03 -4.7500563454869471e-03 0.0000000000000000e+00  -1.0102917000665108e-03 -4.7546106990609951e-03 0.0000000000000000e+00  0.0000000000000000e+00 0.0000000000000000e+00 0.0000000000000000e+00  0.0000000000000000e+00 0.0000000000000000e+00 0.0000000000000000e+00  -1.0580226891106241e-03 6.0459685522828190e-03 0.0000000000000000e+00  -2.6122361297525845e-03 6.0210460032524022e-03 0.0000000000000000e+00  -4.1002743421928592e-03 5.6843738745499814e-03 0.0000000000000000e+00  -5.4784547941252176e-03 5.1864265139696820e-03 0.0000000000000000e+00  -6.7096417747348498e-03 4.5580497890348364e-03 0.0000000000000000e+00  -7.7654194549529711e-03 3.8189607685198985e-03 0.0000000000000000e+00  -8.6228761366272961e-03 2.9889542461116947e-03 0.0000000000000000e+00  -9.2644389307388487e-03 2.0877260400498153e-03 0.0000000000000000e+00  -9.6770178984049299e-03 1.1343645076842713e-03 0.0000000000000000e+00  -9.8511887715425905e-03 1.4746656142312873e-04 0.0000000000000000e+00  -9.7806412266655870e-03 -8.5422875006250338e-04 0.0000000000000000e+00  -9.4621038498015099e-03 -1.8508828183718053e-03 0.0000000000000000e+00  -8.8958776627963160e-03 -2.8205400803647126e-03 0.0000000000000000e+00  -8.0869970562369026e-03 -3.7383776570220190e-03 0.0000000000000000e+00  -7.0468860126972396e-03 -4.5766049875245220e-03 0.0000000000000000e+00  -5.7953336844217447e-03 -5.3052711419455572e-03 0.0000000000000000e+00  -4.3606348867263256e-03 -5.8921104157230730e-03 0.0000000000000000e+00  -2.7891147814945653e-03 -6.2912332266742187e-03 0.0000000000000000e+00  -1.1253305444265361e-03 -6.3064904003761156e-03 0.0000000000000000e+00  0.0000000000000000e+00 0.0000000000000000e+00 0.0000000000000000e+00  0.0000000000000000e+00 0.0000000000000000e+00 0.0000000000000000e+00  -1.1857940085456529e-03 7.6700836065092311e-03 0.0000000000000000e+00  -2.9250895678819486e-03 7.6374004504920125e-03 0.0000000000000000e+00  -4.5871547911340354e-03 7.2047090104052358e-03 0.0000000000000000e+00  -6.1216826727619944e-03 6.5671817734239612e-03 0.0000000000000000e+00  -7.4879637141989129e-03 5.7660554484853356e-03 0.0000000000000000e+00  -8.6560483884462417e-03 4.8281326778809195e-03 0.0000000000000000e+00  -9.6031058137371981e-03 3.7794429404009546e-03 0.0000000000000000e+00  -1.0312576077555679e-02 2.6448593363128745e-03 0.0000000000000000e+00  -1.0772541665193947e-02 1.4474283080761286e-03 0.0000000000000000e+00  -1.0974187887200913e-02 2.0867404655965538e-04 0.0000000000000000e+00  -1.0910698772934416e-02 -1.0502813138483762e-03 0.0000000000000000e+00  -1.0576898691323541e-02 -2.3070531100896161e-03 0.0000000000000000e+00  -9.9698601520972763e-03 -3.5361485532790014e-03 0.0000000000000000e+00  -9.0905731002856663e-03 -4.7074116469954302e-03 0.0000000000000000e+00  -7.9465740308878666e-03 -5.7853591152662301e-03 0.0000000000000000e+00  -6.5553136051218911e-03 -6.7299277844160201e-03 0.0000000000000000e+00  -4.9454640656495137e-03 -7.4965145076547066e-03 0.0000000000000000e+00  -3.1694303606422023e-03 -8.0223598458355107e-03 0.0000000000000000e+00  -1.2793998656286968e-03 -8.0540381566902557e-03 0.0000000000000000e+00  0.0000000000000000e+00 0.0000000000000000e+00 0.0000000000000000e+00  0.0000000000000000e+00 0.0000000000000000e+00 0.0000000000000000e+00  -1.3488871396232967e-03 9.5035948141925855e-03 0.0000000000000000e+00  -3.3237541253342746e-03 9.4582540175132401e-03 0.0000000000000000e+00  -5.2052232692691427e-03 8.9116842714136914e-03 0.0000000000000000e+00  -6.9342622829770524e-03 8.1110284937824968e-03 0.0000000000000000e+00  -8.4657899412266396e-03 7.1110083473674658e-03 0.0000000000000000e+00  -9.7687669158022881e-03 5.9478834705303232e-03 0.0000000000000000e+00  -1.0821712749267387e-02 4.6555131523758281e-03 0.0000000000000000e+00  -1.1610742192927728e-02 3.2645789153326180e-03 0.0000000000000000e+00  -1.2126715083185791e-02 1.8017456770896372e-03 0.0000000000000000e+00  -1.2362582509429457e-02 2.9030155683413503e-04 0.0000000000000000e+00  -1.2311418578194412e-02 -1.2479727217893802e-03 0.0000000000000000e+00  -1.1965553973992455e-02 -2.7900692446088406e-03 0.0000000000000000e+00  -1.1317149760218815e-02 -4.3086072388506085e-03 0.0000000000000000e+00  -1.0360459776952663e-02 -5.7688953618967656e-03 0.0000000000000000e+00  -9.0958241025972907e-03 -7.1270921132828300e-03 0.0000000000000000e+00  -7.5352308616614726e-03 -8.3304386792418372e-03 0.0000000000000000e+00  -5.7057971146196023e-03 -9.3173962066842291e-03 0.0000000000000000e+00  -3.6669936340436521e-03 -1.0001845957994117e-02 0.0000000000000000e+00  -1.4818363540596855e-03 -1.0060050027176283e-02 0.0000000000000000e+00  0.0000000000000000e+00 0.0000000000000000e+00 0.0000000000000000e+00  0.0000000000000000e+00 0.0000000000000000e+00 0.0000000000000000e+00  -1.5550201411488728e-03 1.1602532651753093e-02 0.0000000000000000e+00  -3.8261936907756141e-03 1.1536336566108295e-02 0.0000000000000000e+00  -5.9800737568725826e-03 1.0850208185219245e-02 0.0000000000000000e+00  -7.9460158804436753e-03 9.8534246244149793e-03 0.0000000000000000e+00  -9.6738966417476858e-03 8.6190084847322049e-03 0.0000000000000000e+00  -1.1132802432449599e-02 7.1963440712276214e-03 0.0000000000000000e+00  -1.2305034189132324e-02 5.6294527744599797e-03 0.0000000000000000e+00  -1.3182301731697771e-02 3.9556110995142427e-03 0.0000000000000000e+00  -1.3760984337238933e-02 2.2044061074692695e-03 0.0000000000000000e+00  -1.4037835347989285e-02 3.9896174387210246e-04 0.0000000000000000e+00  -1.4006740746107728e-02 -1.4410910909045214e-03 0.0000000000000000e+00  -1.3657006831049853e-02 -3.2953650325412138e-03 0.0000000000000000e+00  -1.2973634583287897e-02 -5.1376662415525782e-03 0.0000000000000000e+00  -1.1940094036333717e-02 -6.9308247776619213e-03 0.0000000000000000e+00  -1.0544030872578210e-02 -8.6225974653994248e-03 0.0000000000000000e+00  -8.7861381656889042e-03 -1.0144340309019752e-02 0.0000000000000000e+00  -6.6875664801371772e-03 -1.1410693681479758e-02 0.0000000000000000e+00  -4.3150578960103221e-03 -1.2301747038697694e-02 0.0000000000000000e+00  -1.7467970236335203e-03 -1.2403920419485362e-02 0.0000000000000000e+00  0.0000000000000000e+00 0.0000000000000000e+00 0.0000000000000000e+00  0.0000000000000000e+00 0.0000000000000000e+00 0.0000000000000000e+00  -1.8156393428825127e-03 1.4036196054114566e-02 0.0000000000000000e+00  -4.4586601170622927e-03 1.3935307573107861e-02 0.0000000000000000e+00  -6.9483324049572836e-03 1.3071990839696554e-02 0.0000000000000000e+00  -9.1983817736175939e-03 1.1832175580586938e-02 0.0000000000000000e+00  -1.1153356601954515e-02 1.0314760171521555e-02 0.0000000000000000e+00  -1.2785117983588973e-02 8.5878727221340555e-03 0.0000000000000000e+00  -1.4084108629502275e-02 6.7090032353175708e-03 0.0000000000000000e+00  -1.5052490007713646e-02 4.7228772283517441e-03 0.0000000000000000e+00  -1.5696563219355152e-02 2.6606830556025890e-03 0.0000000000000000e+00  -1.6020199181655526e-02 5.4233383694190509e-04 0.0000000000000000e+00  -1.6019877735889487e-02 -1.6190139568069578e-03 0.0000000000000000e+00  -1.5681691599820927e-02 -3.8107461363704599e-03 0.0000000000000000e+00  -1.4980791130226673e-02 -6.0132049326350042e-03 0.0000000000000000e+00  -1.3884162021980295e-02 -8.1911747469996452e-03 0.0000000000000000e+00  -1.2357996343319551e-02 -1.0285723712086546e-02 0.0000000000000000e+00  -1.0381182382723706e-02 -1.2209089964898289e-02 0.0000000000000000e+00  -7.9595250584840356e-03 -1.3842102643798105e-02 0.0000000000000000e+00  -5.1648865017155524e-03 -1.5013962261840394e-02 0.0000000000000000e+00  -2.0963968282700857e-03 -1.5190721924166267e-02 0.0000000000000000e+00  0.0000000000000000e+00 0.0000000000000000e+00 0.0000000000000000e+00  0.0000000000000000e+00 0.0000000000000000e+00 0.0000000000000000e+00  -2.1481692770665664e-03 1.6893634098238439e-02 0.0000000000000000e+00  -5.2604463388260638e-03 1.6734386529370180e-02 0.0000000000000000e+00  -8.1634858847598555e-03 1.5637349697470115e-02 0.0000000000000000e+00  -1.0749781358038436e-02 1.4086487572117891e-02 0.0000000000000000e+00  -1.2959361317231988e-02 1.2218636131734009e-02 0.0000000000000000e+00  -1.4772214002246868e-02 1.0129158731967071e-02 0.0000000000000000e+00  -1.6194488606561145e-02 7.8934365461709090e-03 0.0000000000000000e+00  -1.7246548001316239e-02 5.5642331882677660e-03 0.0000000000000000e+00  -1.7951284896989658e-02 3.1719100592491004e-03 0.0000000000000000e+00  -1.8324693766989024e-02 7.2855724737547233e-04 0.0000000000000000e+00  -1.8368906992948696e-02 -1.7654049955719523e-03 0.0000000000000000e+00  -1.8067503371200021e-02 -4.3127833090652358e-03 0.0000000000000000e+00  -1.7383235046222998e-02 -6.9091449761427863e-03 0.0000000000000000e+00  -1.6259363536366270e-02 -9.5298093628178419e-03 0.0000000000000000e+00  -1.4627531336369763e-02 -1.2115025795232482e-02 0.0000000000000000e+00  -1.2426586505461691e-02 -1.4556751466140645e-02 0.0000000000000000e+00  -9.6274643092394523e-03 -1.6688566163771828e-02 0.0000000000000000e+00  -6.2983415436351905e-03 -1.8260075369561257e-02 0.0000000000000000e+00  -2.5662112856160682e-03 -1.8566191278328932e-02 0.0000000000000000e+00  0.0000000000000000e+00 0.0000000000000000e+00 0.0000000000000000e+00  0.0000000000000000e+00 0.0000000000000000e+00 0.0000000000000000e+00  -2.5800465262978607e-03 2.0294107584731491e-02 0.0000000000000000e+00  -6.2921614315615921e-03 2.0035355521972917e-02 0.0000000000000000e+00  -9.7056087105615012e-03 1.8617190630525103e-02 0.0000000000000000e+00  -1.2684090235796379e-02 1.6654389030682226e-02 0.0000000000000000e+00  -1.5166769489656959e-02 1.4341200205640439e-02 0.0000000000000000e+00  -1.7152323515891580e-02 1.1812702333332840e-02 0.0000000000000000e+00  -1.8675488957213122e-02 9.1674033150257860e-03 0.0000000000000000e+00  -1.9786716631947789e-02 6.4654978102535393e-03 0.0000000000000000e+00  -2.0534939607006090e-02 3.7320943346983381e-03 0.0000000000000000e+00  -2.0955176413964657e-02 9.6474987944418424e-04 0.0000000000000000e+00  -2.1059913864378960e-02 -1.8572627085273626e-03 0.0000000000000000e+00  -2.0832678235205914e-02 -4.7625665776213407e-03 0.0000000000000000e+00  -2.0222811943085076e-02 -7.7748252143128235e-03 0.0000000000000000e+00  -1.9142526404641903e-02 -1.0895162359419730e-02 0.0000000000000000e+00  -1.7471840582377524e-02 -1.4078065672230316e-02 0.0000000000000000e+00  -1.5079163330914934e-02 -1.7202115016731793e-02 0.0000000000000000e+00  -1.1859567740870719e-02 -2.0037590720032784e-02 0.0000000000000000e+00  -7.8515000961612430e-03 -2.2205597106768723e-02 0.0000000000000000e+00  -3.2157726512354236e-03 -2.2741615106921190e-02 0.0000000000000000e+00  0.0000000000000000e+00 0.0000000000000000e+00 0.0000000000000000e+00  0.0000000000000000e+00 0.0000000000000000e+00 0.0000000000000000e+00  -3.1562882297264368e-03 2.4404401113505211e-02 0.0000000000000000e+00  -7.6505777683678333e-03 2.3973413693890198e-02 0.0000000000000000e+00  -1.1697894321065203e-02 2.2094504907218888e-02 0.0000000000000000e+00  -1.5123906131364091e-02 1.9566667307938879e-02 0.0000000000000000e+00  -1.7877719435949499e-02 1.6673213971971180e-02 0.0000000000000000e+00  -1.9997476976783710e-02 1.3606231326971613e-02 0.0000000000000000e+00  -2.1568092328946242e-02 1.0491776854395063e-02 0.0000000000000000e+00  -2.2687457943278921e-02 7.3934278138004178e-03 0.0000000000000000e+00  -2.3442718364731149e-02 4.3230006946333270e-03 0.0000000000000000e+00  -2.3896232605894695e-02 1.2541421337289762e-03 0.0000000000000000e+00  -2.4077113809488595e-02 -1.8652374952030878e-03 0.0000000000000000e+00  -2.3974018946593491e-02 -5.1018043260368309e-03 0.0000000000000000e+00  -2.3525967420826084e-02 -8.5240812194391780e-03 0.0000000000000000e+00  -2.2612530390456659e-02 -1.2184555199245949e-02 0.0000000000000000e+00  -2.1045390183304886e-02 -1.6085174669903876e-02 0.0000000000000000e+00  -1.8570746997172510e-02 -2.0115633927206149e-02 0.0000000000000000e+00  -1.4928494187493719e-02 -2.3969901828461350e-02 0.0000000000000000e+00  -1.0063208268635692e-02 -2.7071986919853949e-02 0.0000000000000000e+00  -4.1601055906075012e-03 -2.8047088513294110e-02 0.0000000000000000e+00  0.0000000000000000e+00 0.0000000000000000e+00 0.0000000000000000e+00  0.0000000000000000e+00 0.0000000000000000e+00 0.0000000000000000e+00  -3.9543376084838705e-03 2.9469719261244042e-02 0.0000000000000000e+00  -9.4961679784909981e-03 2.8734012868622143e-02 0.0000000000000000e+00  -1.4335312059890868e-02 2.6163115402049304e-02 0.0000000000000000e+00  -1.8250899823171591e-02 2.2833349944620301e-02 0.0000000000000000e+00  -2.1230903377928923e-02 1.9167575117526928e-02 0.0000000000000000e+00  -2.3393755995745745