<?xml version="1.0"?>
<VTKFile type="UnstructuredGrid"  version="0.1"  >
<UnstructuredGrid>
<Piece  NumberOfPoints="441" NumberOfCells="800">
<Points>
<DataArray  type="Float64"  NumberOfComponents="3"  format="ascii">0 0 0  0.05 0 0  0.1 0 0  0.15 0 0  0.2 0 0  0.25 0 0  0.3 0 0  0.35 0 0  0.4 0 0  0.45 0 0  0.5 0 0  0.55 0 0  0.6 0 0  0.65 0 0  0.7 0 0  0.75 0 0  0.8 0 0  0.85 0 0  0.9 0 0  0.95 0 0  1 0 0  0 0.05 0  0.05 0.05 0  0.1 0.05 0  0.15 0.05 0  0.2 0.05 0  0.25 0.05 0  0.3 0.05 0  0.35 0.05 0  0.4 0.05 0  0.45 0.05 0  0.5 0.05 0  0.55 0.05 0  0.6 0.05 0  0.65 0.05 0  0.7 0.05 0  0.75 0.05 0  0.8 0.05 0  0.85 0.05 0  0.9 0.05 0  0.95 0.05 0  1 0.05 0  0 0.1 0  0.05 0.1 0  0.1 0.1 0  0.15 0.1 0  0.2 0.1 0  0.25 0.1 0  0.3 0.1 0  0.35 0.1 0  0.4 0.1 0  0.45 0.1 0  0.5 0.1 0  0.55 0.1 0  0.6 0.1 0  0.65 0.1 0  0.7 0.1 0  0.75 0.1 0  0.8 0.1 0  0.85 0.1 0  0.9 0.1 0  0.95 0.1 0  1 0.1 0  0 0.15 0  0.05 0.15 0  0.1 0.15 0  0.15 0.15 0  0.2 0.15 0  0.25 0.15 0  0.3 0.15 0  0.35 0.15 0  0.4 0.15 0  0.45 0.15 0  0.5 0.15 0  0.55 0.15 0  0.6 0.15 0  0.65 0.15 0  0.7 0.15 0  0.75 0.15 0  0.8 0.15 0  0.85 0.15 0  0.9 0.15 0  0.95 0.15 0  1 0.15 0  0 0.2 0  0.05 0.2 0  0.1 0.2 0  0.15 0.2 0  0.2 0.2 0  0.25 0.2 0  0.3 0.2 0  0.35 0.2 0  0.4 0.2 0  0.45 0.2 0  0.5 0.2 0  0.55 0.2 0  0.6 0.2 0  0.65 0.2 0  0.7 0.2 0  0.75 0.2 0  0.8 0.2 0  0.85 0.2 0  0.9 0.2 0  0.95 0.2 0  1 0.2 0  0 0.25 0  0.05 0.25 0  0.1 0.25 0  0.15 0.25 0  0.2 0.25 0  0.25 0.25 0  0.3 0.25 0  0.35 0.25 0  0.4 0.25 0  0.45 0.25 0  0.5 0.25 0  0.55 0.25 0  0.6 0.25 0  0.65 0.25 0  0.7 0.25 0  0.75 0.25 0  0.8 0.25 0  0.85 0.25 0  0.9 0.25 0  0.95 0.25 0  1 0.25 0  0 0.3 0  0.05 0.3 0  0.1 0.3 0  0.15 0.3 0  0.2 0.3 0  0.25 0.3 0  0.3 0.3 0  0.35 0.3 0  0.4 0.3 0  0.45 0.3 0  0.5 0.3 0  0.55 0.3 0  0.6 0.3 0  0.65 0.3 0  0.7 0.3 0  0.75 0.3 0  0.8 0.3 0  0.85 0.3 0  0.9 0.3 0  0.95 0.3 0  1 0.3 0  0 0.35 0  0.05 0.35 0  0.1 0.35 0  0.15 0.35 0  0.2 0.35 0  0.25 0.35 0  0.3 0.35 0  0.35 0.35 0  0.4 0.35 0  0.45 0.35 0  0.5 0.35 0  0.55 0.35 0  0.6 0.35 0  0.65 0.35 0  0.7 0.35 0  0.75 0.35 0  0.8 0.35 0  0.85 0.35 0  0.9 0.35 0  0.95 0.35 0  1 0.35 0  0 0.4 0  0.05 0.4 0  0.1 0.4 0  0.15 0.4 0  0.2 0.4 0  0.25 0.4 0  0.3 0.4 0  0.35 0.4 0  0.4 0.4 0  0.45 0.4 0  0.5 0.4 0  0.55 0.4 0  0.6 0.4 0  0.65 0.4 0  0.7 0.4 0  0.75 0.4 0  0.8 0.4 0  0.85 0.4 0  0.9 0.4 0  0.95 0.4 0  1 0.4 0  0 0.45 0  0.05 0.45 0  0.1 0.45 0  0.15 0.45 0  0.2 0.45 0  0.25 0.45 0  0.3 0.45 0  0.35 0.45 0  0.4 0.45 0  0.45 0.45 0  0.5 0.45 0  0.55 0.45 0  0.6 0.45 0  0.65 0.45 0  0.7 0.45 0  0.75 0.45 0  0.8 0.45 0  0.85 0.45 0  0.9 0.45 0  0.95 0.45 0  1 0.45 0  0 0.5 0  0.05 0.5 0  0.1 0.5 0  0.15 0.5 0  0.2 0.5 0  0.25 0.5 0  0.3 0.5 0  0.35 0.5 0  0.4 0.5 0  0.45 0.5 0  0.5 0.5 0  0.55 0.5 0  0.6 0.5 0  0.65 0.5 0  0.7 0.5 0  0.75 0.5 0  0.8 0.5 0  0.85 0.5 0  0.9 0.5 0  0.95 0.5 0  1 0.5 0  0 0.55 0  0.05 0.55 0  0.1 0.55 0  0.15 0.55 0  0.2 0.55 0  0.25 0.55 0  0.3 0.55 0  0.35 0.55 0  0.4 0.55 0  0.45 0.55 0  0.5 0.55 0  0.55 0.55 0  0.6 0.55 0  0.65 0.55 0  0.7 0.55 0  0.75 0.55 0  0.8 0.55 0  0.85 0.55 0  0.9 0.55 0  0.95 0.55 0  1 0.55 0  0 0.6 0  0.05 0.6 0  0.1 0.6 0  0.15 0.6 0  0.2 0.6 0  0.25 0.6 0  0.3 0.6 0  0.35 0.6 0  0.4 0.6 0  0.45 0.6 0  0.5 0.6 0  0.55 0.6 0  0.6 0.6 0  0.65 0.6 0  0.7 0.6 0  0.75 0.6 0  0.8 0.6 0  0.85 0.6 0  0.9 0.6 0  0.95 0.6 0  1 0.6 0  0 0.65 0  0.05 0.65 0  0.1 0.65 0  0.15 0.65 0  0.2 0.65 0  0.25 0.65 0  0.3 0.65 0  0.35 0.65 0  0.4 0.65 0  0.45 0.65 0  0.5 0.65 0  0.55 0.65 0  0.6 0.65 0  0.65 0.65 0  0.7 0.65 0  0.75 0.65 0  0.8 0.65 0  0.85 0.65 0  0.9 0.65 0  0.95 0.65 0  1 0.65 0  0 0.7 0  0.05 0.7 0  0.1 0.7 0  0.15 0.7 0  0.2 0.7 0  0.25 0.7 0  0.3 0.7 0  0.35 0.7 0  0.4 0.7 0  0.45 0.7 0  0.5 0.7 0  0.55 0.7 0  0.6 0.7 0  0.65 0.7 0  0.7 0.7 0  0.75 0.7 0  0.8 0.7 0  0.85 0.7 0  0.9 0.7 0  0.95 0.7 0  1 0.7 0  0 0.75 0  0.05 0.75 0  0.1 0.75 0  0.15 0.75 0  0.2 0.75 0  0.25 0.75 0  0.3 0.75 0  0.35 0.75 0  0.4 0.75 0  0.45 0.75 0  0.5 0.75 0  0.55 0.75 0  0.6 0.75 0  0.65 0.75 0  0.7 0.75 0  0.75 0.75 0  0.8 0.75 0  0.85 0.75 0  0.9 0.75 0  0.95 0.75 0  1 0.75 0  0 0.8 0  0.05 0.8 0  0.1 0.8 0  0.15 0.8 0  0.2 0.8 0  0.25 0.8 0  0.3 0.8 0  0.35 0.8 0  0.4 0.8 0  0.45 0.8 0  0.5 0.8 0  0.55 0.8 0  0.6 0.8 0  0.65 0.8 0  0.7 0.8 0  0.75 0.8 0  0.8 0.8 0  0.85 0.8 0  0.9 0.8 0  0.95 0.8 0  1 0.8 0  0 0.85 0  0.05 0.85 0  0.1 0.85 0  0.15 0.85 0  0.2 0.85 0  0.25 0.85 0  0.3 0.85 0  0.35 0.85 0  0.4 0.85 0  0.45 0.85 0  0.5 0.85 0  0.55 0.85 0  0.6 0.85 0  0.65 0.85 0  0.7 0.85 0  0.75 0.85 0  0.8 0.85 0  0.85 0.85 0  0.9 0.85 0  0.95 0.85 0  1 0.85 0  0 0.9 0  0.05 0.9 0  0.1 0.9 0  0.15 0.9 0  0.2 0.9 0  0.25 0.9 0  0.3 0.9 0  0.35 0.9 0  0.4 0.9 0  0.45 0.9 0  0.5 0.9 0  0.55 0.9 0  0.6 0.9 0  0.65 0.9 0  0.7 0.9 0  0.75 0.9 0  0.8 0.9 0  0.85 0.9 0  0.9 0.9 0  0.95 0.9 0  1 0.9 0  0 0.95 0  0.05 0.95 0  0.1 0.95 0  0.15 0.95 0  0.2 0.95 0  0.25 0.95 0  0.3 0.95 0  0.35 0.95 0  0.4 0.95 0  0.45 0.95 0  0.5 0.95 0  0.55 0.95 0  0.6 0.95 0  0.65 0.95 0  0.7 0.95 0  0.75 0.95 0  0.8 0.95 0  0.85 0.95 0  0.9 0.95 0  0.95 0.95 0  1 0.95 0  0 1 0  0.05 1 0  0.1 1 0  0.15 1 0  0.2 1 0  0.25 1 0  0.3 1 0  0.35 1 0  0.4 1 0  0.45 1 0  0.5 1 0  0.55 1 0  0.6 1 0  0.65 1 0  0.7 1 0  0.75 1 0  0.8 1 0  0.85 1 0  0.9 1 0  0.95 1 0  1 1 0  </DataArray>
</Points>
<Cells>
[...]
<PointData  Vectors="f_137"> 
<DataArray  type="Float64"  Name="f_137"  NumberOfComponents="3" format="ascii">0.0000000000000000e+00 0.0000000000000000e+00 0.0000000000000000e+00  0.0000000000000000e+00 0.0000000000000000e+00 0.0000000000000000e+00  0.0000000000000000e+00 0.0000000000000000e+00 0.0000000000000000e+00  0.0000000000000000e+00 0.0000000000000000e+00 0.0000000000000000e+00  0.0000000000000000e+00 0.0000000000000000e+00 0.0000000000000000e+00  0.0000000000000000e+00 0.0000000000000000e+00 0.0000000000000000e+00  0.0000000000000000e+00 0.0000000000000000e+00 0.0000000000000000e+00  0.0000000000000000e+00 0.0000000000000000e+00 0.0000000000000000e+00  0.0000000000000000e+00 0.0000000000000000e+00 0.0000000000000000e+00  0.0000000000000000e+00 0.0000000000000000e+00 0.0000000000000000e+00  0.0000000000000000e+00 0.0000000000000000e+00 0.0000000000000000e+00  0.0000000000000000e+00 0.0000000000000000e+00 0.0000000000000000e+00  0.0000000000000000e+00 0.0000000000000000e+00 0.0000000000000000e+00  0.0000000000000000e+00 0.0000000000000000e+00 0.0000000000000000e+00  0.0000000000000000e+00 0.0000000000000000e+00 0.0000000000000000e+00  0.0000000000000000e+00 0.0000000000000000e+00 0.0000000000000000e+00  0.0000000000000000e+00 0.0000000000000000e+00 0.0000000000000000e+00  0.0000000000000000e+00 0.0000000000000000e+00 0.0000000000000000e+00  0.0000000000000000e+00 0.0000000000000000e+00 0.0000000000000000e+00  0.0000000000000000e+00 0.0000000000000000e+00 0.0000000000000000e+00  0.0000000000000000e+00 0.0000000000000000e+00 0.0000000000000000e+00  0.0000000000000000e+00 0.0000000000000000e+00 0.0000000000000000e+00  -8.0547484566079240e-04 7.9695181692582403e-04 0.0000000000000000e+00  -2.0007984860072278e-03 7.9489576564464295e-04 0.0000000000000000e+00  -3.1460913725167663e-03 7.4897806385380589e-04 0.0000000000000000e+00  -4.2095260982275891e-03 6.8439603345330489e-04 0.0000000000000000e+00  -5.1641963916193891e-03 6.0238009089790760e-04 0.0000000000000000e+00  -5.9854865408907314e-03 5.0509474738546849e-04 0.0000000000000000e+00  -6.6527804482234051e-03 3.9493008026765276e-04 0.0000000000000000e+00  -7.1491707782892315e-03 2.7444266394111678e-04 0.0000000000000000e+00  -7.4617163680456610e-03 1.4632295946303639e-04 0.0000000000000000e+00  -7.5815827979198100e-03 1.3382265169164099e-05 0.0000000000000000e+00  -7.5041855408503663e-03 -1.2142137402582170e-04 0.0000000000000000e+00  -7.2293848505557475e-03 -2.5494266982097687e-04 0.0000000000000000e+00  -6.7617384150111910e-03 -3.8381917269532774e-04 0.0000000000000000e+00  -6.1107845197218924e-03 -5.0448093154500072e-04 0.0000000000000000e+00  -5.2912630756733244e-03 -6.1323557572334373e-04 0.0000000000000000e+00  -4.3231650822304268e-03 -7.0641842149754379e-04 0.0000000000000000e+00  -3.2317270878872454e-03 -7.7993455349034744e-04 0.0000000000000000e+00  -2.0506345556765997e-03 -8.2853808461668852e-04 0.0000000000000000e+00  -8.0748241959410609e-04 -8.0505667358980943e-04 0.0000000000000000e+00  0.0000000000000000e+00 0.0000000000000000e+00 0.0000000000000000e+00  0.0000000000000000e+00 0.0000000000000000e+00 0.0000000000000000e+00  -8.5397074928091423e-04 2.0233346679974285e-03 0.0000000000000000e+00  -2.1208508564958483e-03 2.0197373606139694e-03 0.0000000000000000e+00  -3.3387308488362169e-03 1.9094535594151394e-03 0.0000000000000000e+00  -4.4715891754158344e-03 1.7451382113394601e-03 0.0000000000000000e+00  -5.4882293492167621e-03 1.5365860259901442e-03 0.0000000000000000e+00  -6.3632356473183656e-03 1.2893430026766884e-03 0.0000000000000000e+00  -7.0748661566512275e-03 1.0095870175982884e-03 0.0000000000000000e+00  -7.6053891673684435e-03 7.0391029770124557e-04 0.0000000000000000e+00  -7.9412289726754747e-03 3.7915548194903097e-04 0.0000000000000000e+00  -8.0730236582977240e-03 4.2396534732258952e-05 0.0000000000000000e+00  -7.9957256081192429e-03 -2.9898630524633662e-04 0.0000000000000000e+00  -7.7087936650685144e-03 -6.3718496793890378e-04 0.0000000000000000e+00  -7.2164938204281768e-03 -9.6386027703948129e-04 0.0000000000000000e+00  -6.5282753906565696e-03 -1.2701308699932749e-03 0.0000000000000000e+00  -5.6591393893697184e-03 -1.5467342373365945e-03 0.0000000000000000e+00  -4.6300546486581469e-03 -1.7843900522165608e-03 0.0000000000000000e+00  -3.4669420976800266e-03 -1.9735061241957213e-03 0.0000000000000000e+00  -2.2060425435933787e-03 -2.0977546289407049e-03 0.0000000000000000e+00  -8.8619816948988018e-04 -2.0830058903737107e-03 0.0000000000000000e+00  0.0000000000000000e+00 0.0000000000000000e+00 0.0000000000000000e+00  0.0000000000000000e+00 0.0000000000000000e+00 0.0000000000000000e+00  -9.0122697369362094e-04 3.3048873666484437e-03 0.0000000000000000e+00  -2.2435407392902059e-03 3.3027854101590030e-03 0.0000000000000000e+00  -3.5318898151006587e-03 3.1217676567790735e-03 0.0000000000000000e+00  -4.7298335661005797e-03 2.8523505040695123e-03 0.0000000000000000e+00  -5.8041741938604603e-03 2.5106183185418535e-03 0.0000000000000000e+00  -6.7286178141072904e-03 2.1061120003849744e-03 0.0000000000000000e+00  -7.4807124832329359e-03 1.6491066518990352e-03 0.0000000000000000e+00  -8.0423533782336930e-03 1.1503931884575217e-03 0.0000000000000000e+00  -8.3996946418327372e-03 6.2100788862727097e-04 0.0000000000000000e+00  -8.5430590909029314e-03 7.2228702722134647e-05 0.0000000000000000e+00  -8.4669325212315700e-03 -4.8425313634160611e-04 0.0000000000000000e+00  -8.1701261982326263e-03 -1.0360626977524443e-03 0.0000000000000000e+00  -7.6561472801957246e-03 -1.5698880386861163e-03 0.0000000000000000e+00  -6.9337500329594518e-03 -2.0713786982400097e-03 0.0000000000000000e+00  -6.0175666986765743e-03 -2.5253428990072765e-03 0.0000000000000000e+00  -4.9287758161047834e-03 -2.9163118255193798e-03 0.0000000000000000e+00  -3.6942569547823360e-03 -3.2281858462869886e-03 0.0000000000000000e+00  -2.3532520616882614e-03 -3.4358863109027827e-03 0.0000000000000000e+00  -9.4391368977830696e-04 -3.4207850878075767e-03 0.0000000000000000e+00  0.0000000000000000e+00 0.0000000000000000e+00 0.0000000000000000e+00  0.0000000000000000e+00 0.0000000000000000e+00 0.0000000000000000e+00  -9.7323725320641575e-04 4.6735561653132671e-03 0.0000000000000000e+00  -2.4210078601015973e-03 4.6745816746612285e-03 0.0000000000000000e+00  -3.8103161961559493e-03 4.4176950747042672e-03 0.0000000000000000e+00  -5.1005225177381671e-03 4.0351741910883898e-03 0.0000000000000000e+00  -6.2562680376529256e-03 3.5506429768271223e-03 0.0000000000000000e+00  -7.2499632477229818e-03 2.9783198484925376e-03 0.0000000000000000e+00  -8.0584658167682753e-03 2.3330078442595614e-03 0.0000000000000000e+00  -8.6634143319028276e-03 1.6299205047899717e-03 0.0000000000000000e+00  -9.0508341562241523e-03 8.8430202929330986e-04 0.0000000000000000e+00  -9.2107765453775144e-03 1.1146000751518157e-04 0.0000000000000000e+00  -9.1371134464194245e-03 -6.7288318646375577e-04 0.0000000000000000e+00  -8.8276290818892229e-03 -1.4520517559644980e-03 0.0000000000000000e+00  -8.2844860263519733e-03 -2.2078740042667994e-03 0.0000000000000000e+00  -7.5150520953030783e-03 -2.9203563424557489e-03 0.0000000000000000e+00  -6.5329601974694158e-03 -3.5678199269402596e-03 0.0000000000000000e+00  -5.3593200264184368e-03 -4.1276588391073142e-03 0.0000000000000000e+00  -4.0221619829381942e-03 -4.5761732022475158e-03 0.0000000000000000e+00  -2.5643975384877205e-03 -4.8772200937611202e-03 0.0000000000000000e+00  -1.0283791668043352e-03 -4.8640146075854445e-03 0.0000000000000000e+00  0.0000000000000000e+00 0.0000000000000000e+00 0.0000000000000000e+00  0.0000000000000000e+00 0.0000000000000000e+00 0.0000000000000000e+00  -1.0718365413431227e-03 6.1665717836291338e-03 0.0000000000000000e+00  -2.6643406126173044e-03 6.1689087586896570e-03 0.0000000000000000e+00  -4.1909701610500201e-03 5.8272547483080410e-03 0.0000000000000000e+00  -5.6058416574953788e-03 5.3195461409737523e-03 0.0000000000000000e+00  -6.8707893060048339e-03 4.6782523066141168e-03 0.0000000000000000e+00  -7.9566174309141507e-03 3.9231519571430529e-03 0.0000000000000000e+00  -8.8396668816363363e-03 3.0742787548025509e-03 0.0000000000000000e+00  -9.5016896404861786e-03 2.1516109679028121e-03 0.0000000000000000e+00  -9.9289791225000493e-03 1.1745536175791983e-03 0.0000000000000000e+00  -1.0111548842275508e-02 1.6207023461245460e-04 0.0000000000000000e+00  -1.0042581626947338e-02 -8.6665680042490717e-04 0.0000000000000000e+00  -9.7183695528089871e-03 -1.8912320176222277e-03 0.0000000000000000e+00  -9.1388844570300734e-03 -2.8889886990734965e-03 0.0000000000000000e+00  -8.3090025800278428e-03 -3.8342052670278211e-03 0.0000000000000000e+00  -7.2402438831651265e-03 -4.6979979595168772e-03 0.0000000000000000e+00  -5.9528917007657051e-03 -5.4492157006913273e-03 0.0000000000000000e+00  -4.4760399460631092e-03 -6.0544849490770337e-03 0.0000000000000000e+00  -2.8577093185768402e-03 -6.4638637794765270e-03 0.0000000000000000e+00  -1.1460264439012158e-03 -6.4558297661049145e-03 0.0000000000000000e+00  0.0000000000000000e+00 0.0000000000000000e+00 0.0000000000000000e+00  0.0000000000000000e+00 0.0000000000000000e+00 0.0000000000000000e+00  -1.2007059564976591e-03 7.8247863324299623e-03 0.0000000000000000e+00  -2.9821949864996117e-03 7.8262689902022734e-03 0.0000000000000000e+00  -4.6868198207227806e-03 7.3873497403418691e-03 0.0000000000000000e+00  -6.2618728378149718e-03 6.7374516632710945e-03 0.0000000000000000e+00  -7.6655349758587704e-03 5.9199737791413558e-03 0.0000000000000000e+00  -8.8670277321432362e-03 4.9618146568128777e-03 0.0000000000000000e+00  -9.8427384969112710e-03 3.8893077865710564e-03 0.0000000000000000e+00  -1.0575403130169785e-02 2.7276713275802499e-03 0.0000000000000000e+00  -1.1052451651707726e-02 1.5003179852998978e-03 0.0000000000000000e+00  -1.1264448345783908e-02 2.2917705995355653e-04 0.0000000000000000e+00  -1.1203971484532322e-02 -1.0641479125466393e-03 0.0000000000000000e+00  -1.0865256807298091e-02 -2.3566561337136712e-03 0.0000000000000000e+00  -1.0244840164819731e-02 -3.6220309461237731e-03 0.0000000000000000e+00  -9.3433076881645500e-03 -4.8290131697277311e-03 0.0000000000000000e+00  -8.1680496884753012e-03 -5.9406969806603512e-03 0.0000000000000000e+00  -6.7368521393160741e-03 -6.9153667522407983e-03 0.0000000000000000e+00  -5.0791484331249087e-03 -7.7068018417008766e-03 0.0000000000000000e+00  -3.2493065510614686e-03 -8.2469098474075124e-03 0.0000000000000000e+00  -1.3037804019748189e-03 -8.2493096766723117e-03 0.0000000000000000e+00  0.0000000000000000e+00 0.0000000000000000e+00 0.0000000000000000e+00  0.0000000000000000e+00 0.0000000000000000e+00 0.0000000000000000e+00  -1.3651437729433123e-03 9.6959739544619939e-03 0.0000000000000000e+00  -3.3870874776245983e-03 9.6926116583881065e-03 0.0000000000000000e+00  -5.3160640022564438e-03 9.1384789294826421e-03 0.0000000000000000e+00  -7.0903896200178581e-03 8.3226231699577921e-03 0.0000000000000000e+00  -8.6637718960569168e-03 7.3025404155274559e-03 0.0000000000000000e+00  -1.0004288177924521e-02 6.1146371101526474e-03 0.0000000000000000e+00  -1.1089649735421560e-02 4.7931571672912747e-03 0.0000000000000000e+00  -1.1905256277332861e-02 3.3691935652431296e-03 0.0000000000000000e+00  -1.2441302310291879e-02 1.8698127586408877e-03 0.0000000000000000e+00  -1.2690077317846533e-02 3.1870960077947069e-04 0.0000000000000000e+00  -1.2643951395476940e-02 -1.2618752538903113e-03 0.0000000000000000e+00  -1.2294482158236732e-02 -2.8483339793916275e-03 0.0000000000000000e+00  -1.1633006716555892e-02 -4.4124234615091620e-03 0.0000000000000000e+00  -1.0652996008882564e-02 -5.9181881180260321e-03 0.0000000000000000e+00  -9.3542265853090532e-03 -7.3200088175334075e-03 0.0000000000000000e+00  -7.7486907259685317e-03 -8.5628958308095957e-03 0.0000000000000000e+00  -5.8641082483214891e-03 -9.5829560086840258e-03 0.0000000000000000e+00  -3.7622264783026128e-03 -1.0287026207113458e-02 0.0000000000000000e+00  -1.5113057394191016e-03 -1.0309488761028360e-02 0.0000000000000000e+00  0.0000000000000000e+00 0.0000000000000000e+00 0.0000000000000000e+00  0.0000000000000000e+00 0.0000000000000000e+00 0.0000000000000000e+00  -1.5728546267485559e-03 1.1836997170722743e-02 0.0000000000000000e+00  -3.8970866987084614e-03 1.1821710557886422e-02 0.0000000000000000e+00  -6.1045086726153460e-03 1.1126558252142470e-02 0.0000000000000000e+00  -8.1215103730561764e-03 1.0111447027306753e-02 0.0000000000000000e+00  -9.8966260417118080e-03 8.8528884135085188e-03 0.0000000000000000e+00  -1.1398001843274670e-02 7.4004984323108071e-03 0.0000000000000000e+00  -1.2607121545830992e-02 5.7987950270230980e-03 0.0000000000000000e+00  -1.3515005960856830e-02 4.0855483776403067e-03 0.0000000000000000e+00  -1.4117405117006919e-02 2.2907715821592917e-03 0.0000000000000000e+00  -1.4410419329701701e-02 4.3795058413390812e-04 0.0000000000000000e+00  -1.4387163118519843e-02 -1.4529325505358993e-03 0.0000000000000000e+00  -1.4035972090572836e-02 -3.3610316936562210e-03 0.0000000000000000e+00  -1.3340648370401453e-02 -5.2593958564083974e-03 0.0000000000000000e+00  -1.2283313428697647e-02 -7.1095491478639838e-03 0.0000000000000000e+00  -1.0850346162901274e-02 -8.8571403661748555e-03 0.0000000000000000e+00  -9.0417873690895149e-03 -1.0430569902201018e-02 0.0000000000000000e+00  -6.8789603457342823e-03 -1.1741039773742027e-02 0.0000000000000000e+00  -4.4311978119352625e-03 -1.2659202373373736e-02 0.0000000000000000e+00  -1.7833073220784560e-03 -1.2718749832738328e-02 0.0000000000000000e+00  0.0000000000000000e+00 0.0000000000000000e+00 0.0000000000000000e+00  0.0000000000000000e+00 0.0000000000000000e+00 0.0000000000000000e+00  -1.8352665481116449e-03 1.4318084946468281e-02 0.0000000000000000e+00  -4.5385936281296269e-03 1.4278404660044082e-02 0.0000000000000000e+00  -7.0890739543951380e-03 1.3404416176443458e-02 0.0000000000000000e+00  -9.3970742203591511e-03 1.2142730411304885e-02 0.0000000000000000e+00  -1.1405628144661372e-02 1.0596592134298016e-02 0.0000000000000000e+00  -1.3085596944876403e-02 8.8345052030542881e-03 0.0000000000000000e+00  -1.4426627525711966e-02 6.9146257731910596e-03 0.0000000000000000e+00  -1.5430280253926348e-02 4.8822935461070712e-03 0.0000000000000000e+00  -1.6102349877757688e-02 2.7691496719595781e-03 0.0000000000000000e+00  -1.6446161154461483e-02 5.9537465576694581e-04 0.0000000000000000e+00  -1.6457441851798139e-02 -1.6257492801121803e-03 0.0000000000000000e+00  -1.6121153475208917e-02 -3.8814817617818459e-03 0.0000000000000000e+00  -1.5410807268110881e-02 -6.1517700426113580e-03 0.0000000000000000e+00  -1.4291240312674709e-02 -8.4003202600464594e-03 0.0000000000000000e+00  -1.2726220975683843e-02 -1.0565917618298185e-02 0.0000000000000000e+00  -1.0692729724556345e-02 -1.2556996845695943e-02 0.0000000000000000e+00  -8.1957321018312976e-03 -1.4249360577212614e-02 0.0000000000000000e+00  -5.3098550372470184e-03 -1.5459280101302614e-02 0.0000000000000000e+00  -2.1428115128541295e-03 -1.5586395673263398e-02 0.0000000000000000e+00  0.0000000000000000e+00 0.0000000000000000e+00 0.0000000000000000e+00  0.0000000000000000e+00 0.0000000000000000e+00 0.0000000000000000e+00  -2.1697785144172061e-03 1.7229358231008678e-02 0.0000000000000000e+00  -5.3511180243749640e-03 1.7143279967372034e-02 0.0000000000000000e+00  -8.3236658002084751e-03 1.6033638606787026e-02 0.0000000000000000e+00  -1.0976062614928920e-02 1.4456773424146908e-02 0.0000000000000000e+00  -1.3246590004935213e-02 1.2554920103761828e-02 0.0000000000000000e+00  -1.5114170893272820e-02 1.0424059654278598e-02 0.0000000000000000e+00  -1.6584223947405739e-02 8.1405079460273085e-03 0.0000000000000000e+00  -1.7676692468840710e-02 5.7578399144090292e-03 0.0000000000000000e+00  -1.8414223212831600e-02 3.3069280266351661e-03 0.0000000000000000e+00  -1.8812540930888969e-02 7.9999750653593092e-04 0.0000000000000000e+00  -1.8873223402785546e-02 -1.7627658339597150e-03 0.0000000000000000e+00  -1.8578705222810708e-02 -4.3846434268871382e-03 0.0000000000000000e+00  -1.7889689783578567e-02 -7.0615925183732838e-03 0.0000000000000000e+00  -1.6746244666958482e-02 -9.7686089382419215e-03 0.0000000000000000e+00  -1.5075758407560876e-02 -1.2443921463439611e-02 0.0000000000000000e+00  -1.2812889213666283e-02 -1.4974926717681497e-02 0.0000000000000000e+00  -9.9254890968184292e-03 -1.7188014564668466e-02 0.0000000000000000e+00  -6.4840522096802390e-03 -1.8814472092012011e-02 0.0000000000000000e+00  -2.6269398245829583e-03 -1.9064535020972682e-02 0.0000000000000000e+00  0.0000000000000000e+00 0.0000000000000000e+00 0.0000000000000000e+00  0.0000000000000000e+00 0.0000000000000000e+00 0.0000000000000000e+00  -2.6037932055904874e-03 2.0691369911500088e-02 0.0000000000000000e+00  -6.3955918807581894e-03 2.0519748346979678e-02 0.0000000000000000e+00  -9.8889695526927328e-03 1.9086608350496047e-02 0.0000000000000000e+00  -1.2943153844453218e-02 1.7092815891865957e-02 0.0000000000000000e+00  -1.5495240107740577e-02 1.4739342691631904e-02 0.0000000000000000e+00  -1.7542759238235624e-02 1.2162282263611598e-02 0.0000000000000000e+00  -1.9119840366755767e-02 9.4615056558415359e-03 0.0000000000000000e+00  -2.0276827381501050e-02 6.6983525556122449e-03 0.0000000000000000e+00  -2.1062867277097698e-02 3.8985855962581735e-03 0.0000000000000000e+00  -2.1513244833218502e-02 1.0597689492651816e-03 0.0000000000000000e+00  -2.1640405343251453e-02 -1.8395418477742476e-03 0.0000000000000000e+00  -2.1427063747191763e-02 -4.8293715395557740e-03 0.0000000000000000e+00  -2.0820356301371520e-02 -7.9351459078616064e-03 0.0000000000000000e+00  -1.9728079611761599e-02 -1.1159283196692571e-02 0.0000000000000000e+00  -1.8023537292588088e-02 -1.4455693206802313e-02 0.0000000000000000e+00  -1.5567065486805410e-02 -1.7698716319891818e-02 0.0000000000000000e+00  -1.2245406353423657e-02 -2.0648688226476232e-02 0.0000000000000000e+00  -8.0967786224942096e-03 -2.2898911271499491e-02 0.0000000000000000e+00  -3.2975173417521546e-03 -2.3373915388904806e-02 0.0000000000000000e+00  0.0000000000000000e+00 0.0000000000000000e+00 0.0000000000000000e+00  0.0000000000000000e+00 0.0000000000000000e+00 0.0000000000000000e+00  -3.1822845539549284e-03 2.4872531457540516e-02 0.0000000000000000e+00  -7.7692825004966899e-03 2.4545010920452470e-02 0.0000000000000000e+00  -1.1909083715539925e-02 2.2648092498176453e-02 0.0000000000000000e+00  -1.5422122022021308e-02 2.0083012677385943e-02 0.0000000000000000e+00  -1.8254976464243729e-02 1.7141520891789240e-02 0.0000000000000000e+00  -2.0444528001057161e-02 1.4017348856130497e-02 0.0000000000000000e+00  -2.2075275502897944e-02 1.0838591824943275e-02 0.0000000000000000e+00  -2.3245491379246044e-02 7.6705309451357067e-03 0.0000000000000000e+00  -2.4043261913758867e-02 4.5259460359493428e-03 0.0000000000000000e+00  -2.4532109537743155e-02 1.3784440268521999e-03 0.0000000000000000e+00  -2.4742102775035739e-02 -1.8253098210860713e-03 0.0000000000000000e+00  -2.4662016459389438e-02 -5.1545473235506175e-03 0.0000000000000000e+00  -2.4229005666455056e-02 -8.6814348161338775e-03 0.0000000000000000e+00  -2.3317899051786616e-02 -1.2463030133710803e-02 0.0000000000000000e+00  -2.1731386346226882e-02 -1.6505575032921875e-02 0.0000000000000000e+00  -1.9199933031486517e-02 -2.0697468016630038e-02 0.0000000000000000e+00  -1.5442873933906623e-02 -2.4716668109870370e-02 0.0000000000000000e+00  -1.0398736022853822e-02 -2.7943525351985014e-02 0.0000000000000000e+00  -4.2745291766741493e-03 -2.8857348778845975e-02 0.0000000000000000e+00  0.0000000000000000e+00 0.0000000000000000e+00 0.0000000000000000e+00  0.0000000000000000e+00 0.0000000000000000e+00 0.0000000000000000e+00  -3.9826521170950955e-03 3.0020049922024519e-02 0.0000000000000000e+00  -9.6334298644564047e-03 2.9407111570351835e-02 0.0000000000000000e+00  -1.4580326608981127e-02 2.6814105811543806e-02 0.0000000000000000e+00  -1.8596383239969389e-02 2.3438970583468121e-02 0.0000000000000000e+00  -2.1666360048931278e-02 1.9715233085579095e-02 0.0000000000000000e+00  -2.3907239817132418