<?xml version="1.0"?>
<VTKFile type="UnstructuredGrid"  version="0.1"  >
<UnstructuredGrid>
<Piece  NumberOfPoints="441" NumberOfCells="800">
<Points>
<DataArray  type="Float64"  NumberOfComponents="3"  format="ascii">0 0 0  0.05 0 0  0.1 0 0  0.15 0 0  0.2 0 0  0.25 0 0  0.3 0 0  0.35 0 0  0.4 0 0  0.45 0 0  0.5 0 0  0.55 0 0  0.6 0 0  0.65 0 0  0.7 0 0  0.75 0 0  0.8 0 0  0.85 0 0  0.9 0 0  0.95 0 0  1 0 0  0 0.05 0  0.05 0.05 0  0.1 0.05 0  0.15 0.05 0  0.2 0.05 0  0.25 0.05 0  0.3 0.05 0  0.35 0.05 0  0.4 0.05 0  0.45 0.05 0  0.5 0.05 0  0.55 0.05 0  0.6 0.05 0  0.65 0.05 0  0.7 0.05 0  0.75 0.05 0  0.8 0.05 0  0.85 0.05 0  0.9 0.05 0  0.95 0.05 0  1 0.05 0  0 0.1 0  0.05 0.1 0  0.1 0.1 0  0.15 0.1 0  0.2 0.1 0  0.25 0.1 0  0.3 0.1 0  0.35 0.1 0  0.4 0.1 0  0.45 0.1 0  0.5 0.1 0  0.55 0.1 0  0.6 0.1 0  0.65 0.1 0  0.7 0.1 0  0.75 0.1 0  0.8 0.1 0  0.85 0.1 0  0.9 0.1 0  0.95 0.1 0  1 0.1 0  0 0.15 0  0.05 0.15 0  0.1 0.15 0  0.15 0.15 0  0.2 0.15 0  0.25 0.15 0  0.3 0.15 0  0.35 0.15 0  0.4 0.15 0  0.45 0.15 0  0.5 0.15 0  0.55 0.15 0  0.6 0.15 0  0.65 0.15 0  0.7 0.15 0  0.75 0.15 0  0.8 0.15 0  0.85 0.15 0  0.9 0.15 0  0.95 0.15 0  1 0.15 0  0 0.2 0  0.05 0.2 0  0.1 0.2 0  0.15 0.2 0  0.2 0.2 0  0.25 0.2 0  0.3 0.2 0  0.35 0.2 0  0.4 0.2 0  0.45 0.2 0  0.5 0.2 0  0.55 0.2 0  0.6 0.2 0  0.65 0.2 0  0.7 0.2 0  0.75 0.2 0  0.8 0.2 0  0.85 0.2 0  0.9 0.2 0  0.95 0.2 0  1 0.2 0  0 0.25 0  0.05 0.25 0  0.1 0.25 0  0.15 0.25 0  0.2 0.25 0  0.25 0.25 0  0.3 0.25 0  0.35 0.25 0  0.4 0.25 0  0.45 0.25 0  0.5 0.25 0  0.55 0.25 0  0.6 0.25 0  0.65 0.25 0  0.7 0.25 0  0.75 0.25 0  0.8 0.25 0  0.85 0.25 0  0.9 0.25 0  0.95 0.25 0  1 0.25 0  0 0.3 0  0.05 0.3 0  0.1 0.3 0  0.15 0.3 0  0.2 0.3 0  0.25 0.3 0  0.3 0.3 0  0.35 0.3 0  0.4 0.3 0  0.45 0.3 0  0.5 0.3 0  0.55 0.3 0  0.6 0.3 0  0.65 0.3 0  0.7 0.3 0  0.75 0.3 0  0.8 0.3 0  0.85 0.3 0  0.9 0.3 0  0.95 0.3 0  1 0.3 0  0 0.35 0  0.05 0.35 0  0.1 0.35 0  0.15 0.35 0  0.2 0.35 0  0.25 0.35 0  0.3 0.35 0  0.35 0.35 0  0.4 0.35 0  0.45 0.35 0  0.5 0.35 0  0.55 0.35 0  0.6 0.35 0  0.65 0.35 0  0.7 0.35 0  0.75 0.35 0  0.8 0.35 0  0.85 0.35 0  0.9 0.35 0  0.95 0.35 0  1 0.35 0  0 0.4 0  0.05 0.4 0  0.1 0.4 0  0.15 0.4 0  0.2 0.4 0  0.25 0.4 0  0.3 0.4 0  0.35 0.4 0  0.4 0.4 0  0.45 0.4 0  0.5 0.4 0  0.55 0.4 0  0.6 0.4 0  0.65 0.4 0  0.7 0.4 0  0.75 0.4 0  0.8 0.4 0  0.85 0.4 0  0.9 0.4 0  0.95 0.4 0  1 0.4 0  0 0.45 0  0.05 0.45 0  0.1 0.45 0  0.15 0.45 0  0.2 0.45 0  0.25 0.45 0  0.3 0.45 0  0.35 0.45 0  0.4 0.45 0  0.45 0.45 0  0.5 0.45 0  0.55 0.45 0  0.6 0.45 0  0.65 0.45 0  0.7 0.45 0  0.75 0.45 0  0.8 0.45 0  0.85 0.45 0  0.9 0.45 0  0.95 0.45 0  1 0.45 0  0 0.5 0  0.05 0.5 0  0.1 0.5 0  0.15 0.5 0  0.2 0.5 0  0.25 0.5 0  0.3 0.5 0  0.35 0.5 0  0.4 0.5 0  0.45 0.5 0  0.5 0.5 0  0.55 0.5 0  0.6 0.5 0  0.65 0.5 0  0.7 0.5 0  0.75 0.5 0  0.8 0.5 0  0.85 0.5 0  0.9 0.5 0  0.95 0.5 0  1 0.5 0  0 0.55 0  0.05 0.55 0  0.1 0.55 0  0.15 0.55 0  0.2 0.55 0  0.25 0.55 0  0.3 0.55 0  0.35 0.55 0  0.4 0.55 0  0.45 0.55 0  0.5 0.55 0  0.55 0.55 0  0.6 0.55 0  0.65 0.55 0  0.7 0.55 0  0.75 0.55 0  0.8 0.55 0  0.85 0.55 0  0.9 0.55 0  0.95 0.55 0  1 0.55 0  0 0.6 0  0.05 0.6 0  0.1 0.6 0  0.15 0.6 0  0.2 0.6 0  0.25 0.6 0  0.3 0.6 0  0.35 0.6 0  0.4 0.6 0  0.45 0.6 0  0.5 0.6 0  0.55 0.6 0  0.6 0.6 0  0.65 0.6 0  0.7 0.6 0  0.75 0.6 0  0.8 0.6 0  0.85 0.6 0  0.9 0.6 0  0.95 0.6 0  1 0.6 0  0 0.65 0  0.05 0.65 0  0.1 0.65 0  0.15 0.65 0  0.2 0.65 0  0.25 0.65 0  0.3 0.65 0  0.35 0.65 0  0.4 0.65 0  0.45 0.65 0  0.5 0.65 0  0.55 0.65 0  0.6 0.65 0  0.65 0.65 0  0.7 0.65 0  0.75 0.65 0  0.8 0.65 0  0.85 0.65 0  0.9 0.65 0  0.95 0.65 0  1 0.65 0  0 0.7 0  0.05 0.7 0  0.1 0.7 0  0.15 0.7 0  0.2 0.7 0  0.25 0.7 0  0.3 0.7 0  0.35 0.7 0  0.4 0.7 0  0.45 0.7 0  0.5 0.7 0  0.55 0.7 0  0.6 0.7 0  0.65 0.7 0  0.7 0.7 0  0.75 0.7 0  0.8 0.7 0  0.85 0.7 0  0.9 0.7 0  0.95 0.7 0  1 0.7 0  0 0.75 0  0.05 0.75 0  0.1 0.75 0  0.15 0.75 0  0.2 0.75 0  0.25 0.75 0  0.3 0.75 0  0.35 0.75 0  0.4 0.75 0  0.45 0.75 0  0.5 0.75 0  0.55 0.75 0  0.6 0.75 0  0.65 0.75 0  0.7 0.75 0  0.75 0.75 0  0.8 0.75 0  0.85 0.75 0  0.9 0.75 0  0.95 0.75 0  1 0.75 0  0 0.8 0  0.05 0.8 0  0.1 0.8 0  0.15 0.8 0  0.2 0.8 0  0.25 0.8 0  0.3 0.8 0  0.35 0.8 0  0.4 0.8 0  0.45 0.8 0  0.5 0.8 0  0.55 0.8 0  0.6 0.8 0  0.65 0.8 0  0.7 0.8 0  0.75 0.8 0  0.8 0.8 0  0.85 0.8 0  0.9 0.8 0  0.95 0.8 0  1 0.8 0  0 0.85 0  0.05 0.85 0  0.1 0.85 0  0.15 0.85 0  0.2 0.85 0  0.25 0.85 0  0.3 0.85 0  0.35 0.85 0  0.4 0.85 0  0.45 0.85 0  0.5 0.85 0  0.55 0.85 0  0.6 0.85 0  0.65 0.85 0  0.7 0.85 0  0.75 0.85 0  0.8 0.85 0  0.85 0.85 0  0.9 0.85 0  0.95 0.85 0  1 0.85 0  0 0.9 0  0.05 0.9 0  0.1 0.9 0  0.15 0.9 0  0.2 0.9 0  0.25 0.9 0  0.3 0.9 0  0.35 0.9 0  0.4 0.9 0  0.45 0.9 0  0.5 0.9 0  0.55 0.9 0  0.6 0.9 0  0.65 0.9 0  0.7 0.9 0  0.75 0.9 0  0.8 0.9 0  0.85 0.9 0  0.9 0.9 0  0.95 0.9 0  1 0.9 0  0 0.95 0  0.05 0.95 0  0.1 0.95 0  0.15 0.95 0  0.2 0.95 0  0.25 0.95 0  0.3 0.95 0  0.35 0.95 0  0.4 0.95 0  0.45 0.95 0  0.5 0.95 0  0.55 0.95 0  0.6 0.95 0  0.65 0.95 0  0.7 0.95 0  0.75 0.95 0  0.8 0.95 0  0.85 0.95 0  0.9 0.95 0  0.95 0.95 0  1 0.95 0  0 1 0  0.05 1 0  0.1 1 0  0.15 1 0  0.2 1 0  0.25 1 0  0.3 1 0  0.35 1 0  0.4 1 0  0.45 1 0  0.5 1 0  0.55 1 0  0.6 1 0  0.65 1 0  0.7 1 0  0.75 1 0  0.8 1 0  0.85 1 0  0.9 1 0  0.95 1 0  1 1 0  </DataArray>
</Points>
<Cells>
[...]
<PointData  Vectors="f_137"> 
<DataArray  type="Float64"  Name="f_137"  NumberOfComponents="3" format="ascii">0.0000000000000000e+00 0.0000000000000000e+00 0.0000000000000000e+00  0.0000000000000000e+00 0.0000000000000000e+00 0.0000000000000000e+00  0.0000000000000000e+00 0.0000000000000000e+00 0.0000000000000000e+00  0.0000000000000000e+00 0.0000000000000000e+00 0.0000000000000000e+00  0.0000000000000000e+00 0.0000000000000000e+00 0.0000000000000000e+00  0.0000000000000000e+00 0.0000000000000000e+00 0.0000000000000000e+00  0.0000000000000000e+00 0.0000000000000000e+00 0.0000000000000000e+00  0.0000000000000000e+00 0.0000000000000000e+00 0.0000000000000000e+00  0.0000000000000000e+00 0.0000000000000000e+00 0.0000000000000000e+00  0.0000000000000000e+00 0.0000000000000000e+00 0.0000000000000000e+00  0.0000000000000000e+00 0.0000000000000000e+00 0.0000000000000000e+00  0.0000000000000000e+00 0.0000000000000000e+00 0.0000000000000000e+00  0.0000000000000000e+00 0.0000000000000000e+00 0.0000000000000000e+00  0.0000000000000000e+00 0.0000000000000000e+00 0.0000000000000000e+00  0.0000000000000000e+00 0.0000000000000000e+00 0.0000000000000000e+00  0.0000000000000000e+00 0.0000000000000000e+00 0.0000000000000000e+00  0.0000000000000000e+00 0.0000000000000000e+00 0.0000000000000000e+00  0.0000000000000000e+00 0.0000000000000000e+00 0.0000000000000000e+00  0.0000000000000000e+00 0.0000000000000000e+00 0.0000000000000000e+00  0.0000000000000000e+00 0.0000000000000000e+00 0.0000000000000000e+00  0.0000000000000000e+00 0.0000000000000000e+00 0.0000000000000000e+00  0.0000000000000000e+00 0.0000000000000000e+00 0.0000000000000000e+00  -8.1144118539433995e-04 8.0295553965853894e-04 0.0000000000000000e+00  -2.0302817563537241e-03 8.0623121868473658e-04 0.0000000000000000e+00  -3.2003399197160325e-03 7.5985886181220881e-04 0.0000000000000000e+00  -4.2871548775894955e-03 6.9476660043829097e-04 0.0000000000000000e+00  -5.2633768264524847e-03 6.1197535653600857e-04 0.0000000000000000e+00  -6.1037987902373796e-03 5.1364931526490915e-04 0.0000000000000000e+00  -6.7872768332043459e-03 4.0217727125169047e-04 0.0000000000000000e+00  -7.2964107018011412e-03 2.8012201305256136e-04 0.0000000000000000e+00  -7.6178192309036214e-03 1.5019009890322195e-04 0.0000000000000000e+00  -7.7422949972804174e-03 1.5220678951774048e-05 0.0000000000000000e+00  -7.6649649104145222e-03 -1.2178609575709570e-04 0.0000000000000000e+00  -7.3855061493155313e-03 -2.5762643684029137e-04 0.0000000000000000e+00  -6.9084225087301960e-03 -3.8886174147041204e-04 0.0000000000000000e+00  -6.2433527768707463e-03 -5.1182829945914496e-04 0.0000000000000000e+00  -5.4053131272896321e-03 -6.2272504200646306e-04 0.0000000000000000e+00  -4.4147641802961511e-03 -7.1779189016254162e-04 0.0000000000000000e+00  -3.2975645955657397e-03 -7.9285765037955100e-04 0.0000000000000000e+00  -2.0884477682013062e-03 -8.4189980218145712e-04 0.0000000000000000e+00  -8.1738375934177379e-04 -8.1503569788566081e-04 0.0000000000000000e+00  0.0000000000000000e+00 0.0000000000000000e+00 0.0000000000000000e+00  0.0000000000000000e+00 0.0000000000000000e+00 0.0000000000000000e+00  -8.6551703616257250e-04 2.0531344235548165e-03 0.0000000000000000e+00  -2.1628367045245186e-03 2.0606924272548524e-03 0.0000000000000000e+00  -3.4114875970854314e-03 1.9489082130866877e-03 0.0000000000000000e+00  -4.5735014971346379e-03 1.7820676877986059e-03 0.0000000000000000e+00  -5.6168120884943920e-03 1.5700786253943810e-03 0.0000000000000000e+00  -6.5153220532503378e-03 1.3184995304272307e-03 0.0000000000000000e+00  -7.2466557349591095e-03 1.0335599970097546e-03 0.0000000000000000e+00  -7.7925075270519123e-03 7.2192084491935369e-04 0.0000000000000000e+00  -8.1388025715610265e-03 3.9051512347023276e-04 0.0000000000000000e+00  -8.2757653433754245e-03 4.6534223578553456e-05 0.0000000000000000e+00  -8.1980366172410453e-03 -3.0249089755167820e-04 0.0000000000000000e+00  -7.9048865845646032e-03 -6.4856193895747771e-04 0.0000000000000000e+00  -7.4005411457446430e-03 -9.8310571175996820e-04 0.0000000000000000e+00  -6.6945864456546995e-03 -1.2969629281132447e-03 0.0000000000000000e+00  -5.8023591116258683e-03 -1.5805558815339118e-03 0.0000000000000000e+00  -4.7454152581027798e-03 -1.8242861749630272e-03 0.0000000000000000e+00  -3.5504208461218530e-03 -2.0183269328242822e-03 0.0000000000000000e+00  -2.2548119163935884e-03 -2.1449333579806121e-03 0.0000000000000000e+00  -9.0016800861684250e-04 -2.1215287816235234e-03 0.0000000000000000e+00  0.0000000000000000e+00 0.0000000000000000e+00 0.0000000000000000e+00  0.0000000000000000e+00 0.0000000000000000e+00 0.0000000000000000e+00  -9.1283744079493094e-04 3.3611946530738199e-03 0.0000000000000000e+00  -2.2871150797435184e-03 3.3757526379532754e-03 0.0000000000000000e+00  -3.6079030546371151e-03 3.1921716284875443e-03 0.0000000000000000e+00  -4.8366023068964507e-03 2.9180482833097293e-03 0.0000000000000000e+00  -5.9391416185201797e-03 2.5700237332452981e-03 0.0000000000000000e+00  -6.8885302164323897e-03 2.1576423596929026e-03 0.0000000000000000e+00  -7.6616470473338362e-03 1.6912932607940367e-03 0.0000000000000000e+00  -8.2397849805408308e-03 1.1819031431114530e-03 0.0000000000000000e+00  -8.6085642916517539e-03 6.4067503911862246e-04 0.0000000000000000e+00  -8.7578528524369786e-03 7.9094245286070750e-05 0.0000000000000000e+00  -8.6817754540865297e-03 -4.9088900276851599e-04 0.0000000000000000e+00  -8.3788979322618005e-03 -1.0565768140587070e-03 0.0000000000000000e+00  -7.8526272393515759e-03 -1.6042603314243183e-03 0.0000000000000000e+00  -7.1117992269156211e-03 -2.1191147605803345e-03 0.0000000000000000e+00  -6.1713444668576338e-03 -2.5854045832349416e-03 0.0000000000000000e+00  -5.0530222383644080e-03 -2.9870997112965143e-03 0.0000000000000000e+00  -3.7844767638546112e-03 -3.3076386887807272e-03 0.0000000000000000e+00  -2.4062441645702351e-03 -3.5198910082527815e-03 0.0000000000000000e+00  -9.5943888787619754e-04 -3.4906475509805550e-03 0.0000000000000000e+00  0.0000000000000000e+00 0.0000000000000000e+00 0.0000000000000000e+00  0.0000000000000000e+00 0.0000000000000000e+00 0.0000000000000000e+00  -9.8536834483501788e-04 4.7575480115938434e-03 0.0000000000000000e+00  -2.4671323217545713e-03 4.7814238132103982e-03 0.0000000000000000e+00  -3.8909621636017072e-03 4.5208606869923187e-03 0.0000000000000000e+00  -5.2139762608764623e-03 4.1314102792403915e-03 0.0000000000000000e+00  -6.3998770517140289e-03 3.6376339069283223e-03 0.0000000000000000e+00  -7.4203577109039588e-03 3.0537812379907619e-03 0.0000000000000000e+00  -8.2515757683757525e-03 2.3948203802717704e-03 0.0000000000000000e+00  -8.8745362987578194e-03 1.6761634741272904e-03 0.0000000000000000e+00  -9.2746908135584588e-03 9.1329007125714556e-04 0.0000000000000000e+00  -9.4415833479799781e-03 1.2179378017528102e-04 0.0000000000000000e+00  -9.3686562655784372e-03 -6.8224838393389779e-04 0.0000000000000000e+00  -9.0533628368300381e-03 -1.4817153977166415e-03 0.0000000000000000e+00  -8.4976679663277249e-03 -2.2578788376218166e-03 0.0000000000000000e+00  -7.7089241216183281e-03 -2.9900643361416950e-03 0.0000000000000000e+00  -6.7009846568645039e-03 -3.6557930802052691e-03 0.0000000000000000e+00  -5.4955125137264469e-03 -4.2316056100973826e-03 0.0000000000000000e+00  -4.1213250308077811e-03 -4.6930731083314999e-03 0.0000000000000000e+00  -2.6227676455586732e-03 -5.0012386784388978e-03 0.0000000000000000e+00  -1.0455613807986667e-03 -4.9681135482897171e-03 0.0000000000000000e+00  0.0000000000000000e+00 0.0000000000000000e+00 0.0000000000000000e+00  0.0000000000000000e+00 0.0000000000000000e+00 0.0000000000000000e+00  -1.0847220352462018e-03 6.2802161651278913e-03 0.0000000000000000e+00  -2.7140729874013500e-03 6.3121624873400482e-03 0.0000000000000000e+00  -4.2781754861529568e-03 5.9656743004613162e-03 0.0000000000000000e+00  -5.7287172165614480e-03 5.4487056390498103e-03 0.0000000000000000e+00  -7.0265495535568922e-03 4.7950848372288624e-03 0.0000000000000000e+00  -8.1417180703520949e-03 4.0246378458305750e-03 0.0000000000000000e+00  -9.0498296967213218e-03 3.1576162744133629e-03 0.0000000000000000e+00  -9.7319668446135786e-03 2.2142542694271118e-03 0.0000000000000000e+00  -1.0173804418836615e-02 1.2142493292718057e-03 0.0000000000000000e+00  -1.0364786203756663e-02 1.7691130894815211e-04 0.0000000000000000e+00  -1.0297576602992657e-02 -8.7815007841084700e-04 0.0000000000000000e+00  -9.9680171280551767e-03 -1.9299941884541613e-03 0.0000000000000000e+00  -9.3757353755496552e-03 -2.9552510126874634e-03 0.0000000000000000e+00  -8.5254349234793990e-03 -3.9273052436741692e-03 0.0000000000000000e+00  -7.4287172436194402e-03 -4.8161805988664215e-03 0.0000000000000000e+00  -6.1063491716157508e-03 -5.5895120952636620e-03 0.0000000000000000e+00  -4.5882228939790534e-03 -6.2128351532598925e-03 0.0000000000000000e+00  -2.9240038534151512e-03 -6.6324587621355855e-03 0.0000000000000000e+00  -1.1657166635647704e-03 -6.5982672834449694e-03 0.0000000000000000e+00  0.0000000000000000e+00 0.0000000000000000e+00 0.0000000000000000e+00  0.0000000000000000e+00 0.0000000000000000e+00 0.0000000000000000e+00  -1.2145753513667936e-03 7.9706870905449038e-03 0.0000000000000000e+00  -3.0366113186738319e-03 8.0093228712828212e-03 0.0000000000000000e+00  -4.7825179399275134e-03 7.5643714641624640e-03 0.0000000000000000e+00  -6.3969391216034390e-03 6.9027501278554641e-03 0.0000000000000000e+00  -7.8369998337761548e-03 6.0696835472046186e-03 0.0000000000000000e+00  -9.0711163706720804e-03 5.0921420254342546e-03 0.0000000000000000e+00  -1.0074907827389569e-02 3.9967343644335259e-03 0.0000000000000000e+00  -1.0830408698157094e-02 2.8089884975136003e-03 0.0000000000000000e+00  -1.1324390458890297e-02 1.5526520880408175e-03 0.0000000000000000e+00  -1.1546783817039346e-02 2.5003408479335501e-04 0.0000000000000000e+00  -1.1489544493411960e-02 -1.0767998492673791e-03 0.0000000000000000e+00  -1.1146300580684144e-02 -2.4042460142958818e-03 0.0000000000000000e+00  -1.0513031859077026e-02 -3.7051717396243402e-03 0.0000000000000000e+00  -9.5899028719035675e-03 -4.9472182349168609e-03 0.0000000000000000e+00  -8.3841413026772629e-03 -6.0920547254125967e-03 0.0000000000000000e+00  -6.9138586666807863e-03 -7.0962922647995960e-03 0.0000000000000000e+00  -5.2092536824828607e-03 -7.9121090056289856e-03 0.0000000000000000e+00  -3.3266036115751308e-03 -8.4664589702715901e-03 0.0000000000000000e+00  -1.3270163701363852e-03 -8.4359034170412503e-03 0.0000000000000000e+00  0.0000000000000000e+00 0.0000000000000000e+00 0.0000000000000000e+00  0.0000000000000000e+00 0.0000000000000000e+00 0.0000000000000000e+00  -1.3802116434781045e-03 9.8774455391285008e-03 0.0000000000000000e+00  -3.4473232812147056e-03 9.9197615012314843e-03 0.0000000000000000e+00  -5.4223239070789967e-03 9.3583266037319708e-03 0.0000000000000000e+00  -7.2406060146273238e-03 8.5280974108844047e-03 0.0000000000000000e+00  -8.8547282871907756e-03 7.4889248125108174e-03 0.0000000000000000e+00  -1.0231911902247950e-02 6.2773244550246724e-03 0.0000000000000000e+00  -1.1349071900055930e-02 4.9278851508695633e-03 0.0000000000000000e+00  -1.2190891154932848e-02 3.4720650815413261e-03 0.0000000000000000e+00  -1.2746886157692277e-02 1.9372925120025957e-03 0.0000000000000000e+00  -1.3008664904566527e-02 3.4763800719058433e-04 0.0000000000000000e+00  -1.2967869470349194e-02 -1.2742202377138722e-03 0.0000000000000000e+00  -1.2615258651812533e-02 -2.9040888160450540e-03 0.0000000000000000e+00  -1.1941320097713900e-02 -4.5128693353202413e-03 0.0000000000000000e+00  -1.0938719092450973e-02 -6.0633427573191572e-03 0.0000000000000000e+00  -9.6066488383512640e-03 -7.5081043499120445e-03 0.0000000000000000e+00  -7.9570972952054276e-03 -8.7899012201533167e-03 0.0000000000000000e+00  -6.0183992248636414e-03 -9.8424986771058695e-03 0.0000000000000000e+00  -3.8545240326290950e-03 -1.0566154782637713e-02 0.0000000000000000e+00  -1.5394464213614345e-03 -1.0548242568500846e-02 0.0000000000000000e+00  0.0000000000000000e+00 0.0000000000000000e+00 0.0000000000000000e+00  0.0000000000000000e+00 0.0000000000000000e+00 0.0000000000000000e+00  -1.5893154394638212e-03 1.2058112313466658e-02 0.0000000000000000e+00  -3.9643595986963553e-03 1.2098241043199022e-02 0.0000000000000000e+00  -6.2235765640219921e-03 1.1394416144481011e-02 0.0000000000000000e+00  -8.2900899375772750e-03 1.0362028541883691e-02 0.0000000000000000e+00  -1.0111165566263113e-02 9.0805616806528162e-03 0.0000000000000000e+00  -1.1654039935206684e-02 7.5998065310768376e-03 0.0000000000000000e+00  -1.2899388133597563e-02 5.9647223714951857e-03 0.0000000000000000e+00  -1.3837532046974316e-02 4.2135128098896068e-03 0.0000000000000000e+00  -1.4463569492753061e-02 2.3765675797014223e-03 0.0000000000000000e+00  -1.4772917418196066e-02 4.7769807050451529e-04 0.0000000000000000e+00  -1.4757885302742878e-02 -1.4627873571024649e-03 0.0000000000000000e+00  -1.4405803759516849e-02 -3.4235985966979882e-03 0.0000000000000000e+00  -1.3699242254737841e-02 -5.3770332251699996e-03 0.0000000000000000e+00  -1.2618943312242996e-02 -7.2833062948375405e-03 0.0000000000000000e+00  -1.1149992894347174e-02 -9.0859422912512831e-03 0.0000000000000000e+00  -9.2917713496192787e-03 -1.0710335278411120e-02 0.0000000000000000e+00  -7.0657989810142272e-03 -1.2064250058160713e-02 0.0000000000000000e+00  -4.5439494383605374e-03 -1.3009464165696075e-02 0.0000000000000000e+00  -1.8182432950602958e-03 -1.3020591804559811e-02 0.0000000000000000e+00  0.0000000000000000e+00 0.0000000000000000e+00 0.0000000000000000e+00  0.0000000000000000e+00 0.0000000000000000e+00 0.0000000000000000e+00  -1.8532874834242890e-03 1.4583753176833622e-02 0.0000000000000000e+00  -4.6142385562570531e-03 1.4610708907135422e-02 0.0000000000000000e+00  -7.2234411979934920e-03 1.3726528069845917e-02 0.0000000000000000e+00  -9.5875715935485138e-03 1.2444312318629119e-02 0.0000000000000000e+00  -1.1648238223640993e-02 1.0871018616501632e-02 0.0000000000000000e+00  -1.3375335603317842e-02 9.0754415668060848e-03 0.0000000000000000e+00  -1.4757715453616926e-02 7.1163261252727081e-03 0.0000000000000000e+00  -1.5796313042060996e-02 5.0395481943919665e-03 0.0000000000000000e+00  -1.6496377760869024e-02 2.8771418660536899e-03 0.0000000000000000e+00  -1.6860643186116304e-02 6.4951421837739821e-04 0.0000000000000000e+00  -1.6884039551537396e-02 -1.6299523919933022e-03 0.0000000000000000e+00  -1.6550352646243344e-02 -3.9484054082867702e-03 0.0000000000000000e+00  -1.5831411266787093e-02 -6.2854016362967067e-03 0.0000000000000000e+00  -1.4689862711716420e-02 -8.6035645086004597e-03 0.0000000000000000e+00  -1.3087011209230122e-02 -1.0839370203883838e-02 0.0000000000000000e+00  -1.0997914067500697e-02 -1.2897364731794625e-02 0.0000000000000000e+00  -8.4267394830079296e-03 -1.4648293125826507e-02 0.0000000000000000e+00  -5.4508507539812378e-03 -1.5896169893832197e-02 0.0000000000000000e+00  -2.1873178418044090e-03 -1.5966399159103806e-02 0.0000000000000000e+00  0.0000000000000000e+00 0.0000000000000000e+00 0.0000000000000000e+00  0.0000000000000000e+00 0.0000000000000000e+00 0.0000000000000000e+00  -2.1894890855336589e-03 1.7545439740226442e-02 0.0000000000000000e+00  -5.4366411639308471e-03 1.7539023312858101e-02 0.0000000000000000e+00  -8.4761728665734976e-03 1.6417441221628706e-02 0.0000000000000000e+00  -1.1192508525448145e-02 1.4816295286283424e-02 0.0000000000000000e+00  -1.3522292609061159e-02 1.2882441984877119e-02 0.0000000000000000e+00  -1.5443416033246280e-02 1.0712352144924943e-02 0.0000000000000000e+00  -1.6960551399302914e-02 8.3831670072059324e-03 0.0000000000000000e+00  -1.8093173936630666e-02 5.9491727040024648e-03 0.0000000000000000e+00  -1.8863620204019309e-02 3.4416832595862063e-03 0.0000000000000000e+00  -1.9287279765816456e-02 8.7301794511601423e-04 0.0000000000000000e+00  -1.9365116335178751e-02 -1.7568930907706393e-03 0.0000000000000000e+00  -1.9078366626493197e-02 -4.4518175612808858e-03 0.0000000000000000e+00  -1.8385636912089158e-02 -7.2081115181454403e-03 0.0000000000000000e+00  -1.7223745265622752e-02 -1.0000449874969460e-02 0.0000000000000000e+00  -1.5515741368093368e-02 -1.2764996408172863e-02 0.0000000000000000e+00  -1.3192056908283309e-02 -1.5384435114309356e-02 0.0000000000000000e+00  -1.0217539625783735e-02 -1.7677888056689274e-02 0.0000000000000000e+00  -6.6650230315542349e-03 -1.9359136608697734e-02 0.0000000000000000e+00  -2.6853087847344532e-03 -1.9544072712440987e-02 0.0000000000000000e+00  0.0000000000000000e+00 0.0000000000000000e+00 0.0000000000000000e+00  0.0000000000000000e+00 0.0000000000000000e+00 0.0000000000000000e+00  -2.6252729278767894e-03 2.1064854751557775e-02 0.0000000000000000e+00  -6.4927556925865673e-03 2.0988097456390156e-02 0.0000000000000000e+00  -1.0062964396994297e-02 1.9540915887377722e-02 0.0000000000000000e+00  -1.3190259821528933e-02 1.7518372762261578e-02 0.0000000000000000e+00  -1.5809806445481769e-02 1.5127197048934275e-02 0.0000000000000000e+00  -1.7918016114985759e-02 1.2504303116991081e-02 0.0000000000000000e+00  -1.9548362862894828e-02 9.7507692333131096e-03 0.0000000000000000e+00  -2.0750992261500237e-02 6.9289532706839126e-03 0.0000000000000000e+00  -2.1575160761734387e-02 4.0651972344851713e-03 0.0000000000000000e+00  -2.2056324898357526e-02 1.1570415034451414e-03 0.0000000000000000e+00  -2.2206814392001568e-02 -1.8176823101999241e-03 0.0000000000000000e+00  -2.2008484923898900e-02 -4.8904105552891727e-03 0.0000000000000000e+00  -2.1406220585294244e-02 -8.0883515519428652e-03 0.0000000000000000e+00  -2.0303300577449473e-02 -1.1415211150591386e-02 0.0000000000000000e+00  -1.8566168284842529e-02 -1.4824245329600767e-02 0.0000000000000000e+00  -1.6047043706028143e-02 -1.8185418544831782e-02 0.0000000000000000e+00  -1.2624423862325224e-02 -2.1249084058302656e-02 0.0000000000000000e+00  -8.3362917846801429e-03 -2.3581455787793540e-02 0.0000000000000000e+00  -3.3761897727023127e-03 -2.3983774432423648e-02 0.0000000000000000e+00  0.0000000000000000e+00 0.0000000000000000e+00 0.0000000000000000e+00  0.0000000000000000e+00 0.0000000000000000e+00 0.0000000000000000e+00  -3.2055506632072588e-03 2.5311820062426355e-02 0.0000000000000000e+00  -7.8802446779009817e-03 2.5096950930756534e-02 0.0000000000000000e+00  -1.2108663590380563e-02 2.3183360615517581e-02 0.0000000000000000e+00  -1.5705594857130085e-02 2.0584002931571848e-02 0.0000000000000000e+00  -1.8615265106379231e-02 1.7597847965624150e-02 0.0000000000000000e+00  -2.0873299259391961e-02 1.4419973245163718e-02 0.0000000000000000e+00  -2.2563671497658894e-02 1.1180287236939035e-02 0.0000000000000000e+00  -2.3784867450889310e-02 7.9456178888766497e-03 0.0000000000000000e+00  -2.4625745426800162e-02 4.7296409840190358e-03 0.0000000000000000e+00  -2.5150856004826829e-02 1.5059236388669434e-03 0.0000000000000000e+00  -2.5391145727754322e-02 -1.7800911852731893e-03 0.0000000000000000e+00  -2.5335480114315998e-02 -5.2001926075959043e-03 0.0000000000000000e+00  -2.4919062897739458e-02 -8.8301701455899724e-03 0.0000000000000000e+00  -2.4011858176638819e-02 -1.2731595748912698e-02 0.0000000000000000e+00  -2.2407673310876976e-02 -1.6915356205885235e-02 0.0000000000000000e+00  -1.9820923935129419e-02 -2.1268892563586456e-02 0.0000000000000000e+00  -1.5949738008756105e-02 -2.5453194976220433e-02 0.0000000000000000e+00  -1.0726697421234015e-02 -2.8804149455942691e-02 0.0000000000000000e+00  -4.3841566272300571e-03 -2.9639682636589455e-02 0.0000000000000000e+00  0.0000000000000000e+00 0.0000000000000000e+00 0.0000000000000000e+00  0.0000000000000000e+00 0.0000000000000000e+00 0.0000000000000000e+00  -4.0076610318469435e-03 3.0535257385717576e-02 0.0000000000000000e+00  -9.7609675866062728e-03 3.0055939570620305e-02 0.0000000000000000e+00  -1.4810700005581209e-02 2.7442799642130124e-02 0.0000000000000000e+00  -1.8923403495702547e-02 2.4026302144884739e-02 0.0000000000000000e+00  -2.2080851962436161e-02 2.0249090533548141e-02 0.0000000000000000e+00  -2.4398528652457428