<?xml version="1.0"?>
<VTKFile type="UnstructuredGrid"  version="0.1"  >
<UnstructuredGrid>
<Piece  NumberOfPoints="441" NumberOfCells="800">
<Points>
<DataArray  type="Float64"  NumberOfComponents="3"  format="ascii">0 0 0  0.05 0 0  0.1 0 0  0.15 0 0  0.2 0 0  0.25 0 0  0.3 0 0  0.35 0 0  0.4 0 0  0.45 0 0  0.5 0 0  0.55 0 0  0.6 0 0  0.65 0 0  0.7 0 0  0.75 0 0  0.8 0 0  0.85 0 0  0.9 0 0  0.95 0 0  1 0 0  0 0.05 0  0.05 0.05 0  0.1 0.05 0  0.15 0.05 0  0.2 0.05 0  0.25 0.05 0  0.3 0.05 0  0.35 0.05 0  0.4 0.05 0  0.45 0.05 0  0.5 0.05 0  0.55 0.05 0  0.6 0.05 0  0.65 0.05 0  0.7 0.05 0  0.75 0.05 0  0.8 0.05 0  0.85 0.05 0  0.9 0.05 0  0.95 0.05 0  1 0.05 0  0 0.1 0  0.05 0.1 0  0.1 0.1 0  0.15 0.1 0  0.2 0.1 0  0.25 0.1 0  0.3 0.1 0  0.35 0.1 0  0.4 0.1 0  0.45 0.1 0  0.5 0.1 0  0.55 0.1 0  0.6 0.1 0  0.65 0.1 0  0.7 0.1 0  0.75 0.1 0  0.8 0.1 0  0.85 0.1 0  0.9 0.1 0  0.95 0.1 0  1 0.1 0  0 0.15 0  0.05 0.15 0  0.1 0.15 0  0.15 0.15 0  0.2 0.15 0  0.25 0.15 0  0.3 0.15 0  0.35 0.15 0  0.4 0.15 0  0.45 0.15 0  0.5 0.15 0  0.55 0.15 0  0.6 0.15 0  0.65 0.15 0  0.7 0.15 0  0.75 0.15 0  0.8 0.15 0  0.85 0.15 0  0.9 0.15 0  0.95 0.15 0  1 0.15 0  0 0.2 0  0.05 0.2 0  0.1 0.2 0  0.15 0.2 0  0.2 0.2 0  0.25 0.2 0  0.3 0.2 0  0.35 0.2 0  0.4 0.2 0  0.45 0.2 0  0.5 0.2 0  0.55 0.2 0  0.6 0.2 0  0.65 0.2 0  0.7 0.2 0  0.75 0.2 0  0.8 0.2 0  0.85 0.2 0  0.9 0.2 0  0.95 0.2 0  1 0.2 0  0 0.25 0  0.05 0.25 0  0.1 0.25 0  0.15 0.25 0  0.2 0.25 0  0.25 0.25 0  0.3 0.25 0  0.35 0.25 0  0.4 0.25 0  0.45 0.25 0  0.5 0.25 0  0.55 0.25 0  0.6 0.25 0  0.65 0.25 0  0.7 0.25 0  0.75 0.25 0  0.8 0.25 0  0.85 0.25 0  0.9 0.25 0  0.95 0.25 0  1 0.25 0  0 0.3 0  0.05 0.3 0  0.1 0.3 0  0.15 0.3 0  0.2 0.3 0  0.25 0.3 0  0.3 0.3 0  0.35 0.3 0  0.4 0.3 0  0.45 0.3 0  0.5 0.3 0  0.55 0.3 0  0.6 0.3 0  0.65 0.3 0  0.7 0.3 0  0.75 0.3 0  0.8 0.3 0  0.85 0.3 0  0.9 0.3 0  0.95 0.3 0  1 0.3 0  0 0.35 0  0.05 0.35 0  0.1 0.35 0  0.15 0.35 0  0.2 0.35 0  0.25 0.35 0  0.3 0.35 0  0.35 0.35 0  0.4 0.35 0  0.45 0.35 0  0.5 0.35 0  0.55 0.35 0  0.6 0.35 0  0.65 0.35 0  0.7 0.35 0  0.75 0.35 0  0.8 0.35 0  0.85 0.35 0  0.9 0.35 0  0.95 0.35 0  1 0.35 0  0 0.4 0  0.05 0.4 0  0.1 0.4 0  0.15 0.4 0  0.2 0.4 0  0.25 0.4 0  0.3 0.4 0  0.35 0.4 0  0.4 0.4 0  0.45 0.4 0  0.5 0.4 0  0.55 0.4 0  0.6 0.4 0  0.65 0.4 0  0.7 0.4 0  0.75 0.4 0  0.8 0.4 0  0.85 0.4 0  0.9 0.4 0  0.95 0.4 0  1 0.4 0  0 0.45 0  0.05 0.45 0  0.1 0.45 0  0.15 0.45 0  0.2 0.45 0  0.25 0.45 0  0.3 0.45 0  0.35 0.45 0  0.4 0.45 0  0.45 0.45 0  0.5 0.45 0  0.55 0.45 0  0.6 0.45 0  0.65 0.45 0  0.7 0.45 0  0.75 0.45 0  0.8 0.45 0  0.85 0.45 0  0.9 0.45 0  0.95 0.45 0  1 0.45 0  0 0.5 0  0.05 0.5 0  0.1 0.5 0  0.15 0.5 0  0.2 0.5 0  0.25 0.5 0  0.3 0.5 0  0.35 0.5 0  0.4 0.5 0  0.45 0.5 0  0.5 0.5 0  0.55 0.5 0  0.6 0.5 0  0.65 0.5 0  0.7 0.5 0  0.75 0.5 0  0.8 0.5 0  0.85 0.5 0  0.9 0.5 0  0.95 0.5 0  1 0.5 0  0 0.55 0  0.05 0.55 0  0.1 0.55 0  0.15 0.55 0  0.2 0.55 0  0.25 0.55 0  0.3 0.55 0  0.35 0.55 0  0.4 0.55 0  0.45 0.55 0  0.5 0.55 0  0.55 0.55 0  0.6 0.55 0  0.65 0.55 0  0.7 0.55 0  0.75 0.55 0  0.8 0.55 0  0.85 0.55 0  0.9 0.55 0  0.95 0.55 0  1 0.55 0  0 0.6 0  0.05 0.6 0  0.1 0.6 0  0.15 0.6 0  0.2 0.6 0  0.25 0.6 0  0.3 0.6 0  0.35 0.6 0  0.4 0.6 0  0.45 0.6 0  0.5 0.6 0  0.55 0.6 0  0.6 0.6 0  0.65 0.6 0  0.7 0.6 0  0.75 0.6 0  0.8 0.6 0  0.85 0.6 0  0.9 0.6 0  0.95 0.6 0  1 0.6 0  0 0.65 0  0.05 0.65 0  0.1 0.65 0  0.15 0.65 0  0.2 0.65 0  0.25 0.65 0  0.3 0.65 0  0.35 0.65 0  0.4 0.65 0  0.45 0.65 0  0.5 0.65 0  0.55 0.65 0  0.6 0.65 0  0.65 0.65 0  0.7 0.65 0  0.75 0.65 0  0.8 0.65 0  0.85 0.65 0  0.9 0.65 0  0.95 0.65 0  1 0.65 0  0 0.7 0  0.05 0.7 0  0.1 0.7 0  0.15 0.7 0  0.2 0.7 0  0.25 0.7 0  0.3 0.7 0  0.35 0.7 0  0.4 0.7 0  0.45 0.7 0  0.5 0.7 0  0.55 0.7 0  0.6 0.7 0  0.65 0.7 0  0.7 0.7 0  0.75 0.7 0  0.8 0.7 0  0.85 0.7 0  0.9 0.7 0  0.95 0.7 0  1 0.7 0  0 0.75 0  0.05 0.75 0  0.1 0.75 0  0.15 0.75 0  0.2 0.75 0  0.25 0.75 0  0.3 0.75 0  0.35 0.75 0  0.4 0.75 0  0.45 0.75 0  0.5 0.75 0  0.55 0.75 0  0.6 0.75 0  0.65 0.75 0  0.7 0.75 0  0.75 0.75 0  0.8 0.75 0  0.85 0.75 0  0.9 0.75 0  0.95 0.75 0  1 0.75 0  0 0.8 0  0.05 0.8 0  0.1 0.8 0  0.15 0.8 0  0.2 0.8 0  0.25 0.8 0  0.3 0.8 0  0.35 0.8 0  0.4 0.8 0  0.45 0.8 0  0.5 0.8 0  0.55 0.8 0  0.6 0.8 0  0.65 0.8 0  0.7 0.8 0  0.75 0.8 0  0.8 0.8 0  0.85 0.8 0  0.9 0.8 0  0.95 0.8 0  1 0.8 0  0 0.85 0  0.05 0.85 0  0.1 0.85 0  0.15 0.85 0  0.2 0.85 0  0.25 0.85 0  0.3 0.85 0  0.35 0.85 0  0.4 0.85 0  0.45 0.85 0  0.5 0.85 0  0.55 0.85 0  0.6 0.85 0  0.65 0.85 0  0.7 0.85 0  0.75 0.85 0  0.8 0.85 0  0.85 0.85 0  0.9 0.85 0  0.95 0.85 0  1 0.85 0  0 0.9 0  0.05 0.9 0  0.1 0.9 0  0.15 0.9 0  0.2 0.9 0  0.25 0.9 0  0.3 0.9 0  0.35 0.9 0  0.4 0.9 0  0.45 0.9 0  0.5 0.9 0  0.55 0.9 0  0.6 0.9 0  0.65 0.9 0  0.7 0.9 0  0.75 0.9 0  0.8 0.9 0  0.85 0.9 0  0.9 0.9 0  0.95 0.9 0  1 0.9 0  0 0.95 0  0.05 0.95 0  0.1 0.95 0  0.15 0.95 0  0.2 0.95 0  0.25 0.95 0  0.3 0.95 0  0.35 0.95 0  0.4 0.95 0  0.45 0.95 0  0.5 0.95 0  0.55 0.95 0  0.6 0.95 0  0.65 0.95 0  0.7 0.95 0  0.75 0.95 0  0.8 0.95 0  0.85 0.95 0  0.9 0.95 0  0.95 0.95 0  1 0.95 0  0 1 0  0.05 1 0  0.1 1 0  0.15 1 0  0.2 1 0  0.25 1 0  0.3 1 0  0.35 1 0  0.4 1 0  0.45 1 0  0.5 1 0  0.55 1 0  0.6 1 0  0.65 1 0  0.7 1 0  0.75 1 0  0.8 1 0  0.85 1 0  0.9 1 0  0.95 1 0  1 1 0  </DataArray>
</Points>
<Cells>
[...]
<PointData  Vectors="f_137"> 
<DataArray  type="Float64"  Name="f_137"  NumberOfComponents="3" format="ascii">0.0000000000000000e+00 0.0000000000000000e+00 0.0000000000000000e+00  0.0000000000000000e+00 0.0000000000000000e+00 0.0000000000000000e+00  0.0000000000000000e+00 0.0000000000000000e+00 0.0000000000000000e+00  0.0000000000000000e+00 0.0000000000000000e+00 0.0000000000000000e+00  0.0000000000000000e+00 0.0000000000000000e+00 0.0000000000000000e+00  0.0000000000000000e+00 0.0000000000000000e+00 0.0000000000000000e+00  0.0000000000000000e+00 0.0000000000000000e+00 0.0000000000000000e+00  0.0000000000000000e+00 0.0000000000000000e+00 0.0000000000000000e+00  0.0000000000000000e+00 0.0000000000000000e+00 0.0000000000000000e+00  0.0000000000000000e+00 0.0000000000000000e+00 0.0000000000000000e+00  0.0000000000000000e+00 0.0000000000000000e+00 0.0000000000000000e+00  0.0000000000000000e+00 0.0000000000000000e+00 0.0000000000000000e+00  0.0000000000000000e+00 0.0000000000000000e+00 0.0000000000000000e+00  0.0000000000000000e+00 0.0000000000000000e+00 0.0000000000000000e+00  0.0000000000000000e+00 0.0000000000000000e+00 0.0000000000000000e+00  0.0000000000000000e+00 0.0000000000000000e+00 0.0000000000000000e+00  0.0000000000000000e+00 0.0000000000000000e+00 0.0000000000000000e+00  0.0000000000000000e+00 0.0000000000000000e+00 0.0000000000000000e+00  0.0000000000000000e+00 0.0000000000000000e+00 0.0000000000000000e+00  0.0000000000000000e+00 0.0000000000000000e+00 0.0000000000000000e+00  0.0000000000000000e+00 0.0000000000000000e+00 0.0000000000000000e+00  0.0000000000000000e+00 0.0000000000000000e+00 0.0000000000000000e+00  -8.1656519371440086e-04 8.0811914232131602e-04 0.0000000000000000e+00  -2.0574941335495122e-03 8.1690732378168209e-04 0.0000000000000000e+00  -3.2511701956039083e-03 7.7011763182193371e-04 0.0000000000000000e+00  -4.3603004745866401e-03 7.0457405177469002e-04 0.0000000000000000e+00  -5.3571383389405883e-03 6.2108082385807452e-04 0.0000000000000000e+00  -6.2159079788722772e-03 5.2180038316781464e-04 0.0000000000000000e+00  -6.9149560964864888e-03 4.0911699193199905e-04 0.0000000000000000e+00  -7.4364022687559072e-03 2.8559632742595158e-04 0.0000000000000000e+00  -7.7664319769151025e-03 1.5395784063230512e-04 0.0000000000000000e+00  -7.8954658889681117e-03 1.7065575726370047e-05 0.0000000000000000e+00  -7.8183385319619877e-03 -1.2204082766105294e-04 0.0000000000000000e+00  -7.5345360123448358e-03 -2.6010131892744055e-04 0.0000000000000000e+00  -7.0484967888091122e-03 -3.9360305357513030e-04 0.0000000000000000e+00  -6.3699459677950760e-03 -5.1879029410620238e-04 0.0000000000000000e+00  -5.5141593162025809e-03 -6.3175390934645912e-04 0.0000000000000000e+00  -4.5020505857172374e-03 -7.2863524811054843e-04 0.0000000000000000e+00  -3.3600814346445170e-03 -8.0519788633242793e-04 0.0000000000000000e+00  -2.1239948716589119e-03 -8.5468818480299716e-04 0.0000000000000000e+00  -8.2635870405824575e-04 -8.2409390038840112e-04 0.0000000000000000e+00  0.0000000000000000e+00 0.0000000000000000e+00 0.0000000000000000e+00  0.0000000000000000e+00 0.0000000000000000e+00 0.0000000000000000e+00  -8.7638427705761753e-04 2.0806467792257163e-03 0.0000000000000000e+00  -2.2031261164943664e-03 2.1000076379561524e-03 0.0000000000000000e+00  -3.4817801186236355e-03 1.9867989117785274e-03 0.0000000000000000e+00  -4.6722369493393456e-03 1.8175999529578238e-03 0.0000000000000000e+00  -5.7415998154476859e-03 1.6023677376173404e-03 0.0000000000000000e+00  -6.6631014012059238e-03 1.3466770455714170e-03 0.0000000000000000e+00  -7.4137439659538278e-03 1.0568004890777582e-03 0.0000000000000000e+00  -7.9746550314445403e-03 7.3945878140437883e-04 0.0000000000000000e+00  -8.3312633020301823e-03 4.0166718511592533e-04 0.0000000000000000e+00  -8.4733784434474092e-03 5.0727120311847748e-05 0.0000000000000000e+00  -8.3953251777523046e-03 -3.0568608782184832e-04 0.0000000000000000e+00  -8.0961780715551619e-03 -6.5938910411892314e-04 0.0000000000000000e+00  -7.5801141721116867e-03 -1.0015788429858195e-03 0.0000000000000000e+00  -6.8568467940874085e-03 -1.3228213910358409e-03 0.0000000000000000e+00  -5.9420372751994239e-03 -1.6132257950009145e-03 0.0000000000000000e+00  -4.8578180799714850e-03 -1.8628711491642824e-03 0.0000000000000000e+00  -3.6315965580809178e-03 -2.0616993336647423e-03 0.0000000000000000e+00  -2.3019702871765477e-03 -2.1906675862570532e-03 0.0000000000000000e+00  -9.1347238614283507e-04 -2.1577277001011337e-03 0.0000000000000000e+00  0.0000000000000000e+00 0.0000000000000000e+00 0.0000000000000000e+00  0.0000000000000000e+00 0.0000000000000000e+00 0.0000000000000000e+00  -9.2372831559846583e-04 3.4139347807234915e-03 0.0000000000000000e+00  -2.3288429042141430e-03 3.4462570526149032e-03 0.0000000000000000e+00  -3.6812033349345129e-03 3.2602132074640322e-03 0.0000000000000000e+00  -4.9398619085552469e-03 2.9816452824735331e-03 0.0000000000000000e+00  -6.0699090372233044e-03 2.6276293966487202e-03 0.0000000000000000e+00  -7.0436727475392934e-03 2.2077173534050831e-03 0.0000000000000000e+00  -7.8373754304757130e-03 1.7324006771843800e-03 0.0000000000000000e+00  -8.4317148174572667e-03 1.2127281092736927e-03 0.0000000000000000e+00  -8.8117793929053199e-03 6.6005676668479346e-04 0.0000000000000000e+00  -8.9669796930740616e-03 8.6068073664866419e-05 0.0000000000000000e+00  -8.8910734835509816e-03 -4.9703812100192473e-04 0.0000000000000000e+00  -8.5823724388666353e-03 -1.0762483535079852e-03 0.0000000000000000e+00  -8.0441728055331771e-03 -1.6374623536288401e-03 0.0000000000000000e+00  -7.2853808041544576e-03 -2.1653850609581909e-03 0.0000000000000000e+00  -6.3212131680447248e-03 -2.6437392048043943e-03 0.0000000000000000e+00  -5.1739986958766176e-03 -3.0559265712054684e-03 0.0000000000000000e+00  -3.8721426110122606e-03 -3.3849261489191937e-03 0.0000000000000000e+00  -2.4574331676355844e-03 -3.6017192341437228e-03 0.0000000000000000e+00  -9.7420592251022252e-04 -3.5569243157852573e-03 0.0000000000000000e+00  0.0000000000000000e+00 0.0000000000000000e+00 0.0000000000000000e+00  0.0000000000000000e+00 0.0000000000000000e+00 0.0000000000000000e+00  -9.9672224916467242e-04 4.8365765079991926e-03 0.0000000000000000e+00  -2.5112552785203032e-03 4.8848877195679487e-03 0.0000000000000000e+00  -3.9686637492241869e-03 4.6207833495136739e-03 0.0000000000000000e+00  -5.3236191816075215e-03 4.2247672240050818e-03 0.0000000000000000e+00  -6.5389283839934337e-03 3.7221679096222965e-03 0.0000000000000000e+00  -7.5855835212465892e-03 3.1272648875649168e-03 0.0000000000000000e+00  -8.4390551395231318e-03 2.4551761348452230e-03 0.0000000000000000e+00  -9.0797213852347111e-03 1.7214928559549903e-03 0.0000000000000000e+00  -9.4924604436516982e-03 9.4191205793564016e-04 0.0000000000000000e+00  -9.6663046467943582e-03 1.3229785210763865e-04 0.0000000000000000e+00  -9.5942583448895592e-03 -6.9093077501845910e-04 0.0000000000000000e+00  -9.2734326713044546e-03 -1.5102171648993736e-03 0.0000000000000000e+00  -8.7055821250423757e-03 -2.3062828342848831e-03 0.0000000000000000e+00  -7.8980309207660453e-03 -3.0577770127683565e-03 0.0000000000000000e+00  -6.8648395554375755e-03 -3.7414224243139619e-03 0.0000000000000000e+00  -5.6282129192269633e-03 -4.3328959330932761e-03 0.0000000000000000e+00  -4.2177534605859950e-03 -4.8070390013376088e-03 0.0000000000000000e+00  -2.6791967890812847e-03 -5.1223002784603266e-03 0.0000000000000000e+00  -1.0619159406724584e-03 -5.0672634882626480e-03 0.0000000000000000e+00  0.0000000000000000e+00 0.0000000000000000e+00 0.0000000000000000e+00  0.0000000000000000e+00 0.0000000000000000e+00 0.0000000000000000e+00  -1.0967491864980765e-03 6.3873617345827855e-03 0.0000000000000000e+00  -2.7615750568905687e-03 6.4510244017499593e-03 0.0000000000000000e+00  -4.3620935050836963e-03 6.0998791828368367e-03 0.0000000000000000e+00  -5.8473409833729910e-03 5.5741336090389575e-03 0.0000000000000000e+00  -7.1772323330451361e-03 4.9087468654149978e-03 0.0000000000000000e+00  -8.3210741585520390e-03 4.1235868005007449e-03 0.0000000000000000e+00  -9.2537527599451750e-03 3.2391016746863340e-03 0.0000000000000000e+00  -9.9556863885425558e-03 2.2757551639535621e-03 0.0000000000000000e+00  -1.0411929488955118e-02 1.2535132483939878e-03 0.0000000000000000e+00  -1.0611348360119689e-02 1.9201175499277486e-04 0.0000000000000000e+00  -1.0546076869628026e-02 -8.8872842423912970e-04 0.0000000000000000e+00  -1.0211491032877050e-02 -1.9672331702714580e-03 0.0000000000000000e+00  -9.6068580006515164e-03 -3.0194366081417287e-03 0.0000000000000000e+00  -8.7366930587924347e-03 -4.0178336418395912e-03 0.0000000000000000e+00  -7.6126640706516025e-03 -4.9313553466023858e-03 0.0000000000000000e+00  -6.2560100621805725e-03 -5.7264077461710340e-03 0.0000000000000000e+00  -4.6974228775921237e-03 -6.3674303215039956e-03 0.0000000000000000e+00  -2.9881659642359629e-03 -6.7972636031523410e-03 0.0000000000000000e+00  -1.1844886581479528e-03 -6.7342633278812637e-03 0.0000000000000000e+00  0.0000000000000000e+00 0.0000000000000000e+00 0.0000000000000000e+00  0.0000000000000000e+00 0.0000000000000000e+00 0.0000000000000000e+00  -1.2274800755900375e-03 8.1083646077234148e-03 0.0000000000000000e+00  -3.0884974082168327e-03 8.1868328312035311e-03 0.0000000000000000e+00  -4.8744764994974677e-03 7.7360803820904454e-03 0.0000000000000000e+00  -6.5271707298191588e-03 7.0633605186535570e-03 0.0000000000000000e+00  -8.0027020897669113e-03 6.2154311238390540e-03 0.0000000000000000e+00  -9.2687042511228005e-03 5.2193222286948948e-03 0.0000000000000000e+00  -1.0300041522107043e-02 4.1018889604600471e-03 0.0000000000000000e+00  -1.1078050197303358e-02 2.8889339894112289e-03 0.0000000000000000e+00  -1.1588837448875082e-02 1.6045086955400680e-03 0.0000000000000000e+00  -1.1821687859796164e-02 2.7127582486919706e-04 0.0000000000000000e+00  -1.1767917256097998e-02 -1.0882567269842049e-03 0.0000000000000000e+00  -1.1420525856677364e-02 -2.4498960850672059e-03 0.0000000000000000e+00  -1.0774916132945586e-02 -3.7857012931049095e-03 0.0000000000000000e+00  -9.8308112365218560e-03 -5.0622164595687160e-03 0.0000000000000000e+00  -8.5952581974501011e-03 -6.2396823598956409e-03 0.0000000000000000e+00  -7.0866828286639694e-03 -7.2730138351283415e-03 0.0000000000000000e+00  -5.3360556809527136e-03 -8.1127763081279801e-03 0.0000000000000000e+00  -3.4015146057563392e-03 -8.6813186992279658e-03 0.0000000000000000e+00  -1.3492085557290107e-03 -8.6143962985076854e-03 0.0000000000000000e+00  0.0000000000000000e+00 0.0000000000000000e+00 0.0000000000000000e+00  0.0000000000000000e+00 0.0000000000000000e+00 0.0000000000000000e+00  -1.3941788419682532e-03 1.0048723999241213e-02 0.0000000000000000e+00  -3.5046425234412275e-03 1.0140034799014095e-02 0.0000000000000000e+00  -5.5242615126495295e-03 9.5715998763254862e-03 0.0000000000000000e+00  -7.3852386583602705e-03 8.7277946758178085e-03 0.0000000000000000e+00  -9.0390457390758013e-03 7.6704585618917152e-03 0.0000000000000000e+00  -1.0452073996551438e-02 6.4361946053862239e-03 0.0000000000000000e+00  -1.1600454974747546e-02 5.0598967638933760e-03 0.0000000000000000e+00  -1.2468153983755488e-02 3.5733424538516713e-03 0.0000000000000000e+00  -1.3043997835261299e-02 2.0042818478054865e-03 0.0000000000000000e+00  -1.3318893637806521e-02 3.7712923116662222e-04 0.0000000000000000e+00  -1.3283730982366158e-02 -1.2850234993772921e-03 0.0000000000000000e+00  -1.2928442488104512e-02 -2.9574130836358737e-03 0.0000000000000000e+00  -1.2242638034991999e-02 -4.6100935358206621e-03 0.0000000000000000e+00  -1.1218150972811067e-02 -6.2045823384691270e-03 0.0000000000000000e+00  -9.8535680895847355e-03 -7.6916797628814159e-03 0.0000000000000000e+00  -8.1608615522253593e-03 -9.0118344054612165e-03 0.0000000000000000e+00  -6.1689955827157706e-03 -1.0096447075432457e-02 0.0000000000000000e+00  -3.9441136685033941e-03 -1.0839621456422399e-02 0.0000000000000000e+00  -1.5663772889056603e-03 -1.0777020477998417e-02 0.0000000000000000e+00  0.0000000000000000e+00 0.0000000000000000e+00 0.0000000000000000e+00  0.0000000000000000e+00 0.0000000000000000e+00 0.0000000000000000e+00  -1.6045038671776515e-03 1.2266750361335784e-02 0.0000000000000000e+00  -4.0282222147333914e-03 1.2366328884290357e-02 0.0000000000000000e+00  -6.3375762070536868e-03 1.1654229177294395e-02 0.0000000000000000e+00  -8.4521299848826659e-03 1.0605578725203738e-02 0.0000000000000000e+00  -1.0317954990813635e-02 9.3023795477723270e-03 0.0000000000000000e+00  -1.1901408149100769e-02 7.7945609956408552e-03 0.0000000000000000e+00  -1.3182366103134445e-02 6.1274689481113798e-03 0.0000000000000000e+00  -1.4150444223236131e-02 4.3396805585349590e-03 0.0000000000000000e+00  -1.4800067354485115e-02 2.4619122099011599e-03 0.0000000000000000e+00  -1.5125940055566219e-02 5.1826229141842088e-04 0.0000000000000000e+00  -1.5119533098784995e-02 -1.4706622170587327e-03 0.0000000000000000e+00  -1.4767135790888499e-02 -3.4831450422887294e-03 0.0000000000000000e+00  -1.4050046954309765e-02 -5.4907400661353229e-03 0.0000000000000000e+00  -1.2947593947067841e-02 -7.4523502081211427e-03 0.0000000000000000e+00  -1.1443537456023034e-02 -9.3093579323283767e-03 0.0000000000000000e+00  -9.5365833612006817e-03 -1.0984095704322657e-02 0.0000000000000000e+00  -7.2484750458060160e-03 -1.2380845805008124e-02 0.0000000000000000e+00  -4.6535859049396267e-03 -1.3353017759967367e-02 0.0000000000000000e+00  -1.8517477685351185e-03 -1.3310306881083901e-02 0.0000000000000000e+00  0.0000000000000000e+00 0.0000000000000000e+00 0.0000000000000000e+00  0.0000000000000000e+00 0.0000000000000000e+00 0.0000000000000000e+00  -1.8698206183123084e-03 1.4834259828721401e-02 0.0000000000000000e+00  -4.6858427176055609e-03 1.4932702730668046e-02 0.0000000000000000e+00  -7.3517854887308678e-03 1.4038858766927174e-02 0.0000000000000000e+00  -9.7703110547037227e-03 1.2737403386010397e-02 0.0000000000000000e+00  -1.1881692726983402e-02 1.1138447847922580e-02 0.0000000000000000e+00  -1.3654892003190311e-02 9.3110181752971890e-03 0.0000000000000000e+00  -1.5077969566532260e-02 7.3143721592048893e-03 0.0000000000000000e+00  -1.6151215975164682e-02 5.1948444028580105e-03 0.0000000000000000e+00  -1.6879300333129330e-02 2.9848008552288145e-03 0.0000000000000000e+00  -1.7264322800268607e-02 7.0483103241162693e-04 0.0000000000000000e+00  -1.7300371243739936e-02 -1.6316130242203177e-03 0.0000000000000000e+00  -1.6970009089822553e-02 -4.0115860514789948e-03 0.0000000000000000e+00  -1.6243333283751788e-02 -6.4142637039207775e-03 0.0000000000000000e+00  -1.5080751293530819e-02 -8.8011845321553633e-03 0.0000000000000000e+00  -1.3441051937231123e-02 -1.1106490107640549e-02 0.0000000000000000e+00  -1.1297341304451458e-02 -1.3230745583013556e-02 0.0000000000000000e+00  -8.6530317634272904e-03 -1.5039543009641403e-02 0.0000000000000000e+00  -5.5882073761793355e-03 -1.6325236217300147e-02 0.0000000000000000e+00  -2.2300892299450129e-03 -1.6331765317843985e-02 0.0000000000000000e+00  0.0000000000000000e+00 0.0000000000000000e+00 0.0000000000000000e+00  0.0000000000000000e+00 0.0000000000000000e+00 0.0000000000000000e+00  -2.2074422382575014e-03 1.7843162944388792e-02 0.0000000000000000e+00  -5.5173147009846503e-03 1.7922196580354099e-02 0.0000000000000000e+00  -8.6214286061847955e-03 1.6789387268606886e-02 0.0000000000000000e+00  -1.1399636766489897e-02 1.5165614200102033e-02 0.0000000000000000e+00  -1.3787058166346856e-02 1.3201667657498238e-02 0.0000000000000000e+00  -1.5760587307189593e-02 1.0994413237393126e-02 0.0000000000000000e+00  -1.7324141735309453e-02 8.6217110735923655e-03 0.0000000000000000e+00  -1.8496687760369990e-02 6.1384589428670963e-03 0.0000000000000000e+00  -1.9300194471262414e-02 3.5763405979776157e-03 0.0000000000000000e+00  -1.9749655735843471e-02 9.4772293604923749e-04 0.0000000000000000e+00  -1.9845363895625658e-02 -1.7477482818896834e-03 0.0000000000000000e+00  -1.9567301493892027e-02 -4.5143473167773432e-03 0.0000000000000000e+00  -1.8871923486370169e-02 -7.3488474796820150e-03 0.0000000000000000e+00  -1.7692730377827766e-02 -1.0225616197885349e-02 0.0000000000000000e+00  -1.5948326951491395e-02 -1.3078711890054186e-02 0.0000000000000000e+00  -1.3564852552816939e-02 -1.5785936662482087e-02 0.0000000000000000e+00  -1.0504225496579308e-02 -1.8158972998715550e-02 0.0000000000000000e+00  -6.8416676403293859e-03 -1.9894814653287421e-02 0.0000000000000000e+00  -2.7415351212589059e-03 -2.0006033326516168e-02 0.0000000000000000e+00  0.0000000000000000e+00 0.0000000000000000e+00 0.0000000000000000e+00  0.0000000000000000e+00 0.0000000000000000e+00 0.0000000000000000e+00  -2.6446579444360150e-03 2.1416123493774034e-02 0.0000000000000000e+00  -6.5840228992029258e-03 2.1441102794805978e-02 0.0000000000000000e+00  -1.0228111499514924e-02 1.9980856113691783e-02 0.0000000000000000e+00  -1.3426033954383692e-02 1.7931705197847005e-02 0.0000000000000000e+00  -1.6111164458016958e-02 1.5505283357521620e-02 0.0000000000000000e+00  -1.8278828635056130e-02 1.2839173614402040e-02 0.0000000000000000e+00  -1.9961809605063753e-02 1.0035510517914719e-02 0.0000000000000000e+00  -2.1209976057778600e-02 7.1575435942014664e-03 0.0000000000000000e+00  -2.2072600449869580e-02 4.2321152673796191e-03 0.0000000000000000e+00  -2.2585224509123158e-02 1.2567031347910003e-03 0.0000000000000000e+00  -2.2759991866187879e-02 -1.7916020379350217e-03 0.0000000000000000e+00  -2.2577853014308098e-02 -4.9456726400989746e-03 0.0000000000000000e+00  -2.1981388937413478e-02 -8.2345422950989827e-03 0.0000000000000000e+00  -2.0869241222998648e-02 -1.1663211835542364e-02 0.0000000000000000e+00  -1.9100797598851301e-02 -1.5184202553540515e-02 0.0000000000000000e+00  -1.6520075727181161e-02 -1.8662949054933341e-02 0.0000000000000000e+00  -1.2997411198536136e-02 -2.1839700386011039e-02 0.0000000000000000e+00  -8.5705727188998444e-03 -2.4254177036046386e-02 0.0000000000000000e+00  -3.4520865128951483e-03 -2.4572707940146366e-02 0.0000000000000000e+00  0.0000000000000000e+00 0.0000000000000000e+00 0.0000000000000000e+00  0.0000000000000000e+00 0.0000000000000000e+00 0.0000000000000000e+00  -3.2263011634750525e-03 2.5724175758884395e-02 0.0000000000000000e+00  -7.9839364516631171e-03 2.5630086648693890e-02 0.0000000000000000e+00  -1.2297290233528149e-02 2.3701185031887791e-02 0.0000000000000000e+00  -1.5975100380509439e-02 2.1070371060340296e-02 0.0000000000000000e+00  -1.8959422327239000e-02 1.8042758218174554e-02 0.0000000000000000e+00  -2.1284643434020860e-02 1.4814525639165852e-02 0.0000000000000000e+00  -2.3034124222072433e-02 1.1517178279851841e-02 0.0000000000000000e+00  -2.4306417632441287e-02 8.2189325989249374e-03 0.0000000000000000e+00  -2.5191000615121525e-02 4.9342851821378118e-03 0.0000000000000000e+00  -2.5753326598217958e-02 1.6367518350143061e-03 0.0000000000000000e+00  -2.6025150680353142e-02 -1.7294391780731542e-03 0.0000000000000000e+00  -2.5995415063036317e-02 -5.2386497948481619e-03 0.0000000000000000e+00  -2.5597269259068585e-02 -8.9702953523874834e-03 0.0000000000000000e+00  -2.4695644776400547e-02 -1.2990374591251873e-02 0.0000000000000000e+00  -2.3075604021518027e-02 -1.7314832672409079e-02 0.0000000000000000e+00  -2.0435077136200994e-02 -2.1830656450902902e-02 0.0000000000000000e+00  -1.6450251290801972e-02 -2.6180862594632391e-02 0.0000000000000000e+00  -1.1047774037109114e-02 -2.9655491777260068e-02 0.0000000000000000e+00  -4.4892875404820721e-03 -3.0395988869609984e-02 0.0000000000000000e+00  0.0000000000000000e+00 0.0000000000000000e+00 0.0000000000000000e+00  0.0000000000000000e+00 0.0000000000000000e+00 0.0000000000000000e+00  -4.0296344738781076e-03 3.1017698787847253e-02 0.0000000000000000e+00  -9.8794008052312324e-03 3.0681553580639179e-02 0.0000000000000000e+00  -1.5027288785991530e-02 2.8050230525193967e-02 0.0000000000000000e+00  -1.9232946869668102e-02 2.4596162179554154e-02 0.0000000000000000e+00  -2.2475401802735641e-02 2.0769727926179215e-02 0.0000000000000000e+00  -2.4868615519240467