<?xml version="1.0"?>
<VTKFile type="UnstructuredGrid"  version="0.1"  >
<UnstructuredGrid>
<Piece  NumberOfPoints="441" NumberOfCells="800">
<Points>
<DataArray  type="Float64"  NumberOfComponents="3"  format="ascii">0 0 0  0.05 0 0  0.1 0 0  0.15 0 0  0.2 0 0  0.25 0 0  0.3 0 0  0.35 0 0  0.4 0 0  0.45 0 0  0.5 0 0  0.55 0 0  0.6 0 0  0.65 0 0  0.7 0 0  0.75 0 0  0.8 0 0  0.85 0 0  0.9 0 0  0.95 0 0  1 0 0  0 0.05 0  0.05 0.05 0  0.1 0.05 0  0.15 0.05 0  0.2 0.05 0  0.25 0.05 0  0.3 0.05 0  0.35 0.05 0  0.4 0.05 0  0.45 0.05 0  0.5 0.05 0  0.55 0.05 0  0.6 0.05 0  0.65 0.05 0  0.7 0.05 0  0.75 0.05 0  0.8 0.05 0  0.85 0.05 0  0.9 0.05 0  0.95 0.05 0  1 0.05 0  0 0.1 0  0.05 0.1 0  0.1 0.1 0  0.15 0.1 0  0.2 0.1 0  0.25 0.1 0  0.3 0.1 0  0.35 0.1 0  0.4 0.1 0  0.45 0.1 0  0.5 0.1 0  0.55 0.1 0  0.6 0.1 0  0.65 0.1 0  0.7 0.1 0  0.75 0.1 0  0.8 0.1 0  0.85 0.1 0  0.9 0.1 0  0.95 0.1 0  1 0.1 0  0 0.15 0  0.05 0.15 0  0.1 0.15 0  0.15 0.15 0  0.2 0.15 0  0.25 0.15 0  0.3 0.15 0  0.35 0.15 0  0.4 0.15 0  0.45 0.15 0  0.5 0.15 0  0.55 0.15 0  0.6 0.15 0  0.65 0.15 0  0.7 0.15 0  0.75 0.15 0  0.8 0.15 0  0.85 0.15 0  0.9 0.15 0  0.95 0.15 0  1 0.15 0  0 0.2 0  0.05 0.2 0  0.1 0.2 0  0.15 0.2 0  0.2 0.2 0  0.25 0.2 0  0.3 0.2 0  0.35 0.2 0  0.4 0.2 0  0.45 0.2 0  0.5 0.2 0  0.55 0.2 0  0.6 0.2 0  0.65 0.2 0  0.7 0.2 0  0.75 0.2 0  0.8 0.2 0  0.85 0.2 0  0.9 0.2 0  0.95 0.2 0  1 0.2 0  0 0.25 0  0.05 0.25 0  0.1 0.25 0  0.15 0.25 0  0.2 0.25 0  0.25 0.25 0  0.3 0.25 0  0.35 0.25 0  0.4 0.25 0  0.45 0.25 0  0.5 0.25 0  0.55 0.25 0  0.6 0.25 0  0.65 0.25 0  0.7 0.25 0  0.75 0.25 0  0.8 0.25 0  0.85 0.25 0  0.9 0.25 0  0.95 0.25 0  1 0.25 0  0 0.3 0  0.05 0.3 0  0.1 0.3 0  0.15 0.3 0  0.2 0.3 0  0.25 0.3 0  0.3 0.3 0  0.35 0.3 0  0.4 0.3 0  0.45 0.3 0  0.5 0.3 0  0.55 0.3 0  0.6 0.3 0  0.65 0.3 0  0.7 0.3 0  0.75 0.3 0  0.8 0.3 0  0.85 0.3 0  0.9 0.3 0  0.95 0.3 0  1 0.3 0  0 0.35 0  0.05 0.35 0  0.1 0.35 0  0.15 0.35 0  0.2 0.35 0  0.25 0.35 0  0.3 0.35 0  0.35 0.35 0  0.4 0.35 0  0.45 0.35 0  0.5 0.35 0  0.55 0.35 0  0.6 0.35 0  0.65 0.35 0  0.7 0.35 0  0.75 0.35 0  0.8 0.35 0  0.85 0.35 0  0.9 0.35 0  0.95 0.35 0  1 0.35 0  0 0.4 0  0.05 0.4 0  0.1 0.4 0  0.15 0.4 0  0.2 0.4 0  0.25 0.4 0  0.3 0.4 0  0.35 0.4 0  0.4 0.4 0  0.45 0.4 0  0.5 0.4 0  0.55 0.4 0  0.6 0.4 0  0.65 0.4 0  0.7 0.4 0  0.75 0.4 0  0.8 0.4 0  0.85 0.4 0  0.9 0.4 0  0.95 0.4 0  1 0.4 0  0 0.45 0  0.05 0.45 0  0.1 0.45 0  0.15 0.45 0  0.2 0.45 0  0.25 0.45 0  0.3 0.45 0  0.35 0.45 0  0.4 0.45 0  0.45 0.45 0  0.5 0.45 0  0.55 0.45 0  0.6 0.45 0  0.65 0.45 0  0.7 0.45 0  0.75 0.45 0  0.8 0.45 0  0.85 0.45 0  0.9 0.45 0  0.95 0.45 0  1 0.45 0  0 0.5 0  0.05 0.5 0  0.1 0.5 0  0.15 0.5 0  0.2 0.5 0  0.25 0.5 0  0.3 0.5 0  0.35 0.5 0  0.4 0.5 0  0.45 0.5 0  0.5 0.5 0  0.55 0.5 0  0.6 0.5 0  0.65 0.5 0  0.7 0.5 0  0.75 0.5 0  0.8 0.5 0  0.85 0.5 0  0.9 0.5 0  0.95 0.5 0  1 0.5 0  0 0.55 0  0.05 0.55 0  0.1 0.55 0  0.15 0.55 0  0.2 0.55 0  0.25 0.55 0  0.3 0.55 0  0.35 0.55 0  0.4 0.55 0  0.45 0.55 0  0.5 0.55 0  0.55 0.55 0  0.6 0.55 0  0.65 0.55 0  0.7 0.55 0  0.75 0.55 0  0.8 0.55 0  0.85 0.55 0  0.9 0.55 0  0.95 0.55 0  1 0.55 0  0 0.6 0  0.05 0.6 0  0.1 0.6 0  0.15 0.6 0  0.2 0.6 0  0.25 0.6 0  0.3 0.6 0  0.35 0.6 0  0.4 0.6 0  0.45 0.6 0  0.5 0.6 0  0.55 0.6 0  0.6 0.6 0  0.65 0.6 0  0.7 0.6 0  0.75 0.6 0  0.8 0.6 0  0.85 0.6 0  0.9 0.6 0  0.95 0.6 0  1 0.6 0  0 0.65 0  0.05 0.65 0  0.1 0.65 0  0.15 0.65 0  0.2 0.65 0  0.25 0.65 0  0.3 0.65 0  0.35 0.65 0  0.4 0.65 0  0.45 0.65 0  0.5 0.65 0  0.55 0.65 0  0.6 0.65 0  0.65 0.65 0  0.7 0.65 0  0.75 0.65 0  0.8 0.65 0  0.85 0.65 0  0.9 0.65 0  0.95 0.65 0  1 0.65 0  0 0.7 0  0.05 0.7 0  0.1 0.7 0  0.15 0.7 0  0.2 0.7 0  0.25 0.7 0  0.3 0.7 0  0.35 0.7 0  0.4 0.7 0  0.45 0.7 0  0.5 0.7 0  0.55 0.7 0  0.6 0.7 0  0.65 0.7 0  0.7 0.7 0  0.75 0.7 0  0.8 0.7 0  0.85 0.7 0  0.9 0.7 0  0.95 0.7 0  1 0.7 0  0 0.75 0  0.05 0.75 0  0.1 0.75 0  0.15 0.75 0  0.2 0.75 0  0.25 0.75 0  0.3 0.75 0  0.35 0.75 0  0.4 0.75 0  0.45 0.75 0  0.5 0.75 0  0.55 0.75 0  0.6 0.75 0  0.65 0.75 0  0.7 0.75 0  0.75 0.75 0  0.8 0.75 0  0.85 0.75 0  0.9 0.75 0  0.95 0.75 0  1 0.75 0  0 0.8 0  0.05 0.8 0  0.1 0.8 0  0.15 0.8 0  0.2 0.8 0  0.25 0.8 0  0.3 0.8 0  0.35 0.8 0  0.4 0.8 0  0.45 0.8 0  0.5 0.8 0  0.55 0.8 0  0.6 0.8 0  0.65 0.8 0  0.7 0.8 0  0.75 0.8 0  0.8 0.8 0  0.85 0.8 0  0.9 0.8 0  0.95 0.8 0  1 0.8 0  0 0.85 0  0.05 0.85 0  0.1 0.85 0  0.15 0.85 0  0.2 0.85 0  0.25 0.85 0  0.3 0.85 0  0.35 0.85 0  0.4 0.85 0  0.45 0.85 0  0.5 0.85 0  0.55 0.85 0  0.6 0.85 0  0.65 0.85 0  0.7 0.85 0  0.75 0.85 0  0.8 0.85 0  0.85 0.85 0  0.9 0.85 0  0.95 0.85 0  1 0.85 0  0 0.9 0  0.05 0.9 0  0.1 0.9 0  0.15 0.9 0  0.2 0.9 0  0.25 0.9 0  0.3 0.9 0  0.35 0.9 0  0.4 0.9 0  0.45 0.9 0  0.5 0.9 0  0.55 0.9 0  0.6 0.9 0  0.65 0.9 0  0.7 0.9 0  0.75 0.9 0  0.8 0.9 0  0.85 0.9 0  0.9 0.9 0  0.95 0.9 0  1 0.9 0  0 0.95 0  0.05 0.95 0  0.1 0.95 0  0.15 0.95 0  0.2 0.95 0  0.25 0.95 0  0.3 0.95 0  0.35 0.95 0  0.4 0.95 0  0.45 0.95 0  0.5 0.95 0  0.55 0.95 0  0.6 0.95 0  0.65 0.95 0  0.7 0.95 0  0.75 0.95 0  0.8 0.95 0  0.85 0.95 0  0.9 0.95 0  0.95 0.95 0  1 0.95 0  0 1 0  0.05 1 0  0.1 1 0  0.15 1 0  0.2 1 0  0.25 1 0  0.3 1 0  0.35 1 0  0.4 1 0  0.45 1 0  0.5 1 0  0.55 1 0  0.6 1 0  0.65 1 0  0.7 1 0  0.75 1 0  0.8 1 0  0.85 1 0  0.9 1 0  0.95 1 0  1 1 0  </DataArray>
</Points>
<Cells>
[...]
<PointData  Vectors="f_137"> 
<DataArray  type="Float64"  Name="f_137"  NumberOfComponents="3" format="ascii">0.0000000000000000e+00 0.0000000000000000e+00 0.0000000000000000e+00  0.0000000000000000e+00 0.0000000000000000e+00 0.0000000000000000e+00  0.0000000000000000e+00 0.0000000000000000e+00 0.0000000000000000e+00  0.0000000000000000e+00 0.0000000000000000e+00 0.0000000000000000e+00  0.0000000000000000e+00 0.0000000000000000e+00 0.0000000000000000e+00  0.0000000000000000e+00 0.0000000000000000e+00 0.0000000000000000e+00  0.0000000000000000e+00 0.0000000000000000e+00 0.0000000000000000e+00  0.0000000000000000e+00 0.0000000000000000e+00 0.0000000000000000e+00  0.0000000000000000e+00 0.0000000000000000e+00 0.0000000000000000e+00  0.0000000000000000e+00 0.0000000000000000e+00 0.0000000000000000e+00  0.0000000000000000e+00 0.0000000000000000e+00 0.0000000000000000e+00  0.0000000000000000e+00 0.0000000000000000e+00 0.0000000000000000e+00  0.0000000000000000e+00 0.0000000000000000e+00 0.0000000000000000e+00  0.0000000000000000e+00 0.0000000000000000e+00 0.0000000000000000e+00  0.0000000000000000e+00 0.0000000000000000e+00 0.0000000000000000e+00  0.0000000000000000e+00 0.0000000000000000e+00 0.0000000000000000e+00  0.0000000000000000e+00 0.0000000000000000e+00 0.0000000000000000e+00  0.0000000000000000e+00 0.0000000000000000e+00 0.0000000000000000e+00  0.0000000000000000e+00 0.0000000000000000e+00 0.0000000000000000e+00  0.0000000000000000e+00 0.0000000000000000e+00 0.0000000000000000e+00  0.0000000000000000e+00 0.0000000000000000e+00 0.0000000000000000e+00  0.0000000000000000e+00 0.0000000000000000e+00 0.0000000000000000e+00  -4.9293026546477997e-04 4.8311378503809949e-04 0.0000000000000000e+00  -1.0078312154422114e-03 4.7445135145972637e-04 0.0000000000000000e+00  -1.5018826213172428e-03 4.4051756930311130e-04 0.0000000000000000e+00  -1.9565913474405071e-03 3.9640423300667282e-04 0.0000000000000000e+00  -2.3603532820749788e-03 3.4252769232525785e-04 0.0000000000000000e+00  -2.7033133353711212e-03 2.8036653749066406e-04 0.0000000000000000e+00  -2.9772777355891282e-03 2.1160348717011405e-04 0.0000000000000000e+00  -3.1758703362131080e-03 1.3796622198464255e-04 0.0000000000000000e+00  -3.2945642970723722e-03 6.1187412433194390e-05 0.0000000000000000e+00  -3.3306733692635010e-03 -1.7009264894168059e-05 0.0000000000000000e+00  -3.2833395189919450e-03 -9.4903715579443664e-05 0.0000000000000000e+00  -3.1535335427186222e-03 -1.7076477085889333e-04 0.0000000000000000e+00  -2.9440736363860634e-03 -2.4283985420706184e-04 0.0000000000000000e+00  -2.6596533728632330e-03 -3.0936685484793202e-04 0.0000000000000000e+00  -2.3068580970612221e-03 -3.6863777693418230e-04 0.0000000000000000e+00  -1.8941476201216659e-03 -4.1911969740788608e-04 0.0000000000000000e+00  -1.4318580311540295e-03 -4.5895577591087682e-04 0.0000000000000000e+00  -9.3249037317069564e-04 -4.7855125443577775e-04 0.0000000000000000e+00  -4.1268992802211618e-04 -4.1143426323043665e-04 0.0000000000000000e+00  0.0000000000000000e+00 0.0000000000000000e+00 0.0000000000000000e+00  0.0000000000000000e+00 0.0000000000000000e+00 0.0000000000000000e+00  -5.2534954898015792e-04 1.0166845593366748e-03 0.0000000000000000e+00  -1.1168581891445430e-03 1.0446849557763766e-03 0.0000000000000000e+00  -1.6822819472405580e-03 9.7509030694068561e-04 0.0000000000000000e+00  -2.2041938971007744e-03 8.8079221425662419e-04 0.0000000000000000e+00  -2.6684894192439460e-03 7.6501592981121410e-04 0.0000000000000000e+00  -3.0637793290124006e-03 6.3080587363439813e-04 0.0000000000000000e+00  -3.3807627946180071e-03 4.8180513086867405e-04 0.0000000000000000e+00  -3.6122229616903836e-03 3.2178371308936682e-04 0.0000000000000000e+00  -3.7530232730641944e-03 1.5450867438303260e-04 0.0000000000000000e+00  -3.8000660771168012e-03 -1.6290175317623644e-05 0.0000000000000000e+00  -3.7522549725845320e-03 -1.8690255700768509e-04 0.0000000000000000e+00  -3.6104888720890288e-03 -3.5359462394640587e-04 0.0000000000000000e+00  -3.3776963929539796e-03 -5.1257147391877832e-04 0.0000000000000000e+00  -3.0588997089666032e-03 -6.5998193580980727e-04 0.0000000000000000e+00  -2.6612788062284130e-03 -7.9201971758563190e-04 0.0000000000000000e+00  -2.1941976703307477e-03 -9.0515919206966041e-04 0.0000000000000000e+00  -1.6691942740090469e-03 -9.9570548038364903e-04 0.0000000000000000e+00  -1.1002290094917441e-03 -1.0489981269933047e-03 0.0000000000000000e+00  -5.0759543017317736e-04 -9.4507691389304933e-04 0.0000000000000000e+00  0.0000000000000000e+00 0.0000000000000000e+00 0.0000000000000000e+00  0.0000000000000000e+00 0.0000000000000000e+00 0.0000000000000000e+00  -5.5914121348317480e-04 1.5829264814623549e-03 0.0000000000000000e+00  -1.1867317027983305e-03 1.6454513228434404e-03 0.0000000000000000e+00  -1.7888911590914593e-03 1.5401984879932890e-03 0.0000000000000000e+00  -2.3436737686893679e-03 1.3921314026891362e-03 0.0000000000000000e+00  -2.8365737489025296e-03 1.2103009452031530e-03 0.0000000000000000e+00  -3.2556602516877740e-03 9.9961233738775509e-04 0.0000000000000000e+00  -3.5913733075711219e-03 7.6578854311520862e-04 0.0000000000000000e+00  -3.8364229089213782e-03 5.1475004201113395e-04 0.0000000000000000e+00  -3.9856845079498807e-03 2.5234779096272293e-04 0.0000000000000000e+00  -4.0360789576478970e-03 -1.5683984888606416e-05 0.0000000000000000e+00  -3.9864827875244332e-03 -2.8367317010038112e-04 0.0000000000000000e+00  -3.8377067473155668e-03 -5.4590752313836118e-04 0.0000000000000000e+00  -3.5925556084931394e-03 -7.9653920901353193e-04 0.0000000000000000e+00  -3.2559547993290848e-03 -1.0295579583811253e-03 0.0000000000000000e+00  -2.8351029051140995e-03 -1.2389174707228029e-03 0.0000000000000000e+00  -2.3395918595882749e-03 -1.4188933186433743e-03 0.0000000000000000e+00  -1.7814799594299503e-03 -1.5636615625085326e-03 0.0000000000000000e+00  -1.1756530757148040e-03 -1.6526405358449610e-03 0.0000000000000000e+00  -5.4427462186559881e-04 -1.5082624054698836e-03 0.0000000000000000e+00  0.0000000000000000e+00 0.0000000000000000e+00 0.0000000000000000e+00  0.0000000000000000e+00 0.0000000000000000e+00 0.0000000000000000e+00  -6.0947132948096562e-04 2.1915189765382569e-03 0.0000000000000000e+00  -1.2893476885316351e-03 2.2904662400580135e-03 0.0000000000000000e+00  -1.9404856558214371e-03 2.1453161412917344e-03 0.0000000000000000e+00  -2.5392130017003584e-03 1.9386408359646252e-03 0.0000000000000000e+00  -3.0696882410667478e-03 1.6850566329868059e-03 0.0000000000000000e+00  -3.5194632362814389e-03 1.3918657580026363e-03 0.0000000000000000e+00  -3.8788218438195682e-03 1.0671560050507249e-03 0.0000000000000000e+00  -4.1405672419302202e-03 7.1913882097292237e-04 0.0000000000000000e+00  -4.2997681577025019e-03 3.5577973124505558e-04 0.0000000000000000e+00  -4.3535008262677102e-03 -1.5243346576953505e-05 0.0000000000000000e+00  -4.3006678405876396e-03 -3.8640627001557988e-04 0.0000000000000000e+00  -4.1419477346888046e-03 -7.5012367971607379e-04 0.0000000000000000e+00  -3.8798944198865605e-03 -1.0985413579033898e-03 0.0000000000000000e+00  -3.5191673279204943e-03 -1.4234331818153553e-03 0.0000000000000000e+00  -3.0668342875085170e-03 -1.7163294974446572e-03 0.0000000000000000e+00  -2.5326599734531770e-03 -1.9690029829180851e-03 0.0000000000000000e+00  -1.9293311514567090e-03 -2.1730767611529392e-03 0.0000000000000000e+00  -1.2729348551416600e-03 -2.3011618715330414e-03 0.0000000000000000e+00  -5.8791535670725656e-04 -2.1131886545809656e-03 0.0000000000000000e+00  0.0000000000000000e+00 0.0000000000000000e+00 0.0000000000000000e+00  0.0000000000000000e+00 0.0000000000000000e+00 0.0000000000000000e+00  -6.7735290842333719e-04 2.8593274335663782e-03 0.0000000000000000e+00  -1.4287697320187127e-03 2.9963660300129807e-03 0.0000000000000000e+00  -2.1465879301806054e-03 2.8058152490498425e-03 0.0000000000000000e+00  -2.8044213638261251e-03 2.5332288614504268e-03 0.0000000000000000e+00  -3.3849949284060175e-03 2.1997840207343042e-03 0.0000000000000000e+00  -3.8752498792671932e-03 1.8156862538293559e-03 0.0000000000000000e+00  -4.2654751970960508e-03 1.3917945293078614e-03 0.0000000000000000e+00  -4.5488384347201569e-03 9.3881738008627180e-04 0.0000000000000000e+00  -4.7208737870376690e-03 4.6683824755222592e-04 0.0000000000000000e+00  -4.7790044308027866e-03 -1.4670608185836686e-05 0.0000000000000000e+00  -4.7222145697371279e-03 -4.9656344220428642e-04 0.0000000000000000e+00  -4.5509501957697466e-03 -9.6960760284608755e-04 0.0000000000000000e+00  -4.2672771721268283e-03 -1.4240762365727447e-03 0.0000000000000000e+00  -3.8752728280652443e-03 -1.8494935337102284e-03 0.0000000000000000e+00  -3.3815714734875507e-03 -2.2347185715881654e-03 0.0000000000000000e+00  -2.7959345423507493e-03 -2.5685602630886100e-03 0.0000000000000000e+00  -2.1317383349673054e-03 -2.8394427143638083e-03 0.0000000000000000e+00  -1.4066554985632121e-03 -3.0119111274483179e-03 0.0000000000000000e+00  -6.4828287799451381e-04 -2.7762369538902576e-03 0.0000000000000000e+00  0.0000000000000000e+00 0.0000000000000000e+00 0.0000000000000000e+00  0.0000000000000000e+00 0.0000000000000000e+00 0.0000000000000000e+00  -7.6559759687631315e-04 3.6057144840811002e-03 0.0000000000000000e+00  -1.6102703388999563e-03 3.7826949114709639e-03 0.0000000000000000e+00  -2.4143869371979357e-03 3.5388164328294435e-03 0.0000000000000000e+00  -3.1478199886465020e-03 3.1900856170040872e-03 0.0000000000000000e+00  -3.7915380487365917e-03 2.7655861116902439e-03 0.0000000000000000e+00  -4.3320000731273791e-03 2.2792874576752164e-03 0.0000000000000000e+00  -4.7599096056015573e-03 1.7454019239664352e-03 0.0000000000000000e+00  -5.0693301933573175e-03 1.1773820641833596e-03 0.0000000000000000e+00  -5.2567608462825285e-03 5.8736015677193245e-04 0.0000000000000000e+00  -5.3203125273399822e-03 -1.3707118272114652e-05 0.0000000000000000e+00  -5.2591549498679346e-03 -6.1548963871519910e-04 0.0000000000000000e+00  -5.0733396474504002e-03 -1.2075416807987619e-03 0.0000000000000000e+00  -4.7640400176931072e-03 -1.7785612155584349e-03 0.0000000000000000e+00  -4.3341831559911004e-03 -2.3158614963326198e-03 0.0000000000000000e+00  -3.7893724269819043e-03 -2.8053241346987410e-03 0.0000000000000000e+00  -3.1389175998550994e-03 -3.2321257855136981e-03 0.0000000000000000e+00  -2.3967766014413709e-03 -3.5804987792283373e-03 0.0000000000000000e+00  -1.5826055690787342e-03 -3.8050692134456109e-03 0.0000000000000000e+00  -7.2827533974350006e-04 -3.5167779163355552e-03 0.0000000000000000e+00  0.0000000000000000e+00 0.0000000000000000e+00 0.0000000000000000e+00  0.0000000000000000e+00 0.0000000000000000e+00 0.0000000000000000e+00  -8.7841581168546180e-04 4.4533711103917697e-03 0.0000000000000000e+00  -1.8419504195620019e-03 4.6720600481835687e-03 0.0000000000000000e+00  -2.7547868405098249e-03 4.3635393076389565e-03 0.0000000000000000e+00  -3.5818569588108866e-03 3.9243966122081498e-03 0.0000000000000000e+00  -4.3021139621211612e-03 3.3936610642433277e-03 0.0000000000000000e+00  -4.9019626410618626e-03 2.7903712354888483e-03 0.0000000000000000e+00  -5.3733505111190566e-03 2.1329073528692680e-03 0.0000000000000000e+00  -5.7121994877110125e-03 1.4377346508772000e-03 0.0000000000000000e+00  -5.9168271766929289e-03 7.1880799836454936e-04 0.0000000000000000e+00  -5.9866036239096167e-03 -1.2018232526866437e-05 0.0000000000000000e+00  -5.9210677248400399e-03 -7.4400579657752232e-04 0.0000000000000000e+00  -5.7196324114710236e-03 -1.4662744982837793e-03 0.0000000000000000e+00  -5.3819305315503437e-03 -2.1665340792731335e-03 0.0000000000000000e+00  -4.9087848386555281e-03 -2.8300923470142088e-03 0.0000000000000000e+00  -4.3036942801574036e-03 -3.4395208838000060e-03 0.0000000000000000e+00  -3.5745999236363804e-03 -3.9754250788456074e-03 0.0000000000000000e+00  -2.7356083695076702e-03 -4.4163301459156905e-03 0.0000000000000000e+00  -1.8087114527978324e-03 -4.7042054006565717e-03 0.0000000000000000e+00  -8.3153124584798373e-04 -4.3578119129679734e-03 0.0000000000000000e+00  0.0000000000000000e+00 0.0000000000000000e+00 0.0000000000000000e+00  0.0000000000000000e+00 0.0000000000000000e+00 0.0000000000000000e+00  -1.0219589447055450e-03 5.4298999947415350e-03 0.0000000000000000e+00  -2.1355502323581947e-03 5.6912468636491952e-03 0.0000000000000000e+00  -3.1833933028442949e-03 5.3017808928564544e-03 0.0000000000000000e+00  -4.1239308461206914e-03 4.7522449789499151e-03 0.0000000000000000e+00  -4.9340524745799036e-03 4.0947420448227594e-03 0.0000000000000000e+00  -5.6010866621478079e-03 3.3553356837278297e-03 0.0000000000000000e+00  -6.1197589989700311e-03 2.5576774498609445e-03 0.0000000000000000e+00  -6.4894847132305564e-03 1.7214638201024297e-03 0.0000000000000000e+00  -6.7117838668130821e-03 8.6194764641773570e-04 0.0000000000000000e+00  -6.7881903223346940e-03 -9.1579360325348906e-06 0.0000000000000000e+00  -6.7189148812649832e-03 -8.8201027578698322e-04 0.0000000000000000e+00  -6.5023830839346965e-03 -1.7466130712390907e-03 0.0000000000000000e+00  -6.1357003733425080e-03 -2.5907587674825930e-03 0.0000000000000000e+00  -5.6160598407566271e-03 -3.3982905842111820e-03 0.0000000000000000e+00  -4.9430263463525644e-03 -4.1482029232118361e-03 0.0000000000000000e+00  -4.1214483870462594e-03 -4.8152650917316804e-03 0.0000000000000000e+00  -3.1645236444594418e-03 -5.3699987620078691e-03 0.0000000000000000e+00  -2.0967634378473701e-03 -5.7375999652120374e-03 0.0000000000000000e+00  -9.6354750603486899e-04 -5.3274815728539052e-03 0.0000000000000000e+00  0.0000000000000000e+00 0.0000000000000000e+00 0.0000000000000000e+00  0.0000000000000000e+00 0.0000000000000000e+00 0.0000000000000000e+00  -1.2054011007217745e-03 6.5700802139908466e-03 0.0000000000000000e+00  -2.5082921484968486e-03 6.8728688165711638e-03 0.0000000000000000e+00  -3.7225609023097098e-03 6.3784912975710078e-03 0.0000000000000000e+00  -4.7981639611440622e-03 5.6902061325888997e-03 0.0000000000000000e+00  -5.7103567055383922e-03 4.8780156222596712e-03 0.0000000000000000e+00  -6.4493931052977431e-03 3.9779114727557701e-03 0.0000000000000000e+00  -7.0154813171088683e-03 3.0202181902427225e-03 0.0000000000000000e+00  -7.4141962063996878e-03 2.0278642084570649e-03 0.0000000000000000e+00  -7.6523967671454224e-03 1.0163337985691994e-03 0.0000000000000000e+00  -7.7351350366315587e-03 -4.5451434739783065e-06 0.0000000000000000e+00  -7.6637618409428673e-03 -1.0279045856775699e-03 0.0000000000000000e+00  -7.4352517184235337e-03 -2.0467493359731925e-03 0.0000000000000000e+00  -7.0427653759581018e-03 -3.0507965627804830e-03 0.0000000000000000e+00  -6.4775431089145316e-03 -4.0235959189641015e-03 0.0000000000000000e+00  -5.7322190844325055e-03 -4.9405896159566958e-03 0.0000000000000000e+00  -4.8054406048023074e-03 -5.7691368290755463e-03 0.0000000000000000e+00  -3.7072252383473325e-03 -6.4683201946985520e-03 0.0000000000000000e+00  -2.4643035320906052e-03 -6.9402231811169579e-03 0.0000000000000000e+00  -1.1325866619864482e-03 -6.4615178469623795e-03 0.0000000000000000e+00  0.0000000000000000e+00 0.0000000000000000e+00 0.0000000000000000e+00  0.0000000000000000e+00 0.0000000000000000e+00 0.0000000000000000e+00  -1.4428242949905156e-03 7.9193915670271349e-03 0.0000000000000000e+00  -2.9860694880037095e-03 8.2577235972225646e-03 0.0000000000000000e+00  -4.4049218543935941e-03 7.6222870087191887e-03 0.0000000000000000e+00  -5.6383613458083643e-03 6.7542626521525815e-03 0.0000000000000000e+00  -6.6615543427873793e-03 5.7490734787824672e-03 0.0000000000000000e+00  -7.4715889315888646e-03 4.6568367215417995e-03 0.0000000000000000e+00  -8.0787978412546219e-03 3.5161055615358316e-03 0.0000000000000000e+00  -8.4991018235775276e-03 2.3524391428856243e-03 0.0000000000000000e+00  -8.7478219254778881e-03 1.1795343501742929e-03 0.0000000000000000e+00  -8.8354184185066038e-03 2.5429384944378215e-06 0.0000000000000000e+00  -8.7650536756692585e-03 -1.1777813407272152e-03 0.0000000000000000e+00  -8.5316999933470940e-03 -2.3606606156389245e-03 0.0000000000000000e+00  -8.1226986120229300e-03 -3.5407434758595695e-03 0.0000000000000000e+00  -7.5200045258335211e-03 -4.7035893134010041e-03 0.0000000000000000e+00  -6.7046111740913204e-03 -5.8219101849251937e-03 0.0000000000000000e+00  -5.6635059569792520e-03 -6.8540393623458011e-03 0.0000000000000000e+00  -4.3988635640717410e-03 -7.7426494147329744e-03 0.0000000000000000e+00  -2.9380533296415293e-03 -8.3566943686637606e-03 0.0000000000000000e+00  -1.3513445171853438e-03 -7.8071482928898693e-03 0.0000000000000000e+00  0.0000000000000000e+00 0.0000000000000000e+00 0.0000000000000000e+00  0.0000000000000000e+00 0.0000000000000000e+00 0.0000000000000000e+00  -1.7566031443823297e-03 9.5397270181693701e-03 0.0000000000000000e+00  -3.6090163462336642e-03 9.8982149177733129e-03 0.0000000000000000e+00  -5.2792683936717013e-03 9.0655834251743856e-03 0.0000000000000000e+00  -6.6926078281027727e-03 7.9573440165882914e-03 0.0000000000000000e+00  -7.8282376557326488e-03 6.7061634878043917e-03 0.0000000000000000e+00  -8.6975817902600772e-03 5.3820281214052865e-03 0.0000000000000000e+00  -9.3288964237071715e-03 4.0328378561217586e-03 0.0000000000000000e+00  -9.7547309235289301e-03 2.6847531862325387e-03 0.0000000000000000e+00  -1.0003097521231215e-02 1.3460437253801499e-03 0.0000000000000000e+00  -1.0092237781704018e-02 1.2938206744735732e-05 0.0000000000000000e+00  -1.0027988516382549e-02 -1.3243650320025439e-03 0.0000000000000000e+00  -9.8027932577900954e-03 -2.6758773638812733e-03 0.0000000000000000e+00  -9.3960061242548253e-03 -4.0458128683600950e-03 0.0000000000000000e+00  -8.7759467650723299e-03 -5.4260008702497475e-03 0.0000000000000000e+00  -7.9049454227133054e-03 -6.7890799112178208e-03 0.0000000000000000e+00  -6.7490110492874154e-03 -8.0836178590226720e-03 0.0000000000000000e+00  -5.2930400191263252e-03 -9.2293145286927707e-03 0.0000000000000000e+00  -3.5601649521092853e-03 -1.0045842867648050e-02 0.0000000000000000e+00  -1.6400304916327007e-03 -9.4296023629904559e-03 0.0000000000000000e+00  0.0000000000000000e+00 0.0000000000000000e+00 0.0000000000000000e+00  0.0000000000000000e+00 0.0000000000000000e+00 0.0000000000000000e+00  -2.1837050055946079e-03 1.1518970022665196e-02 0.0000000000000000e+00  -4.4415652368157690e-03 1.1863305244080889e-02 0.0000000000000000e+00  -6.4204884469117960e-03 1.0743492138068271e-02 0.0000000000000000e+00  -8.0302450460551685e-03 9.3040440825043202e-03 0.0000000000000000e+00  -9.2641541236065834e-03 7.7334643331707156e-03 0.0000000000000000e+00  -1.0162293507959963e-02 6.1284932876078729e-03 0.0000000000000000e+00  -1.0783610325437209e-02 4.5453304515176724e-03 0.0000000000000000e+00  -1.1186081343700712e-02 3.0056118491712603e-03 0.0000000000000000e+00  -1.1415432634235431e-02 1.5059131263299582e-03 0.0000000000000000e+00  -1.1500129728995492e-02 2.7475066582335870e-05 0.0000000000000000e+00  -1.1449595224110792e-02 -1.4558076190940845e-03 0.0000000000000000e+00  -1.1253502983361158e-02 -2.9706615514124178e-03 0.0000000000000000e+00  -1.0881355697041201e-02 -4.5375166543174788e-03 0.0000000000000000e+00  -1.0283071208410299e-02 -6.1618528118692079e-03 0.0000000000000000e+00  -9.3927816017237153e-03 -7.8228626692624804e-03 0.0000000000000000e+00  -8.1402201238388299e-03 -9.4616779033807295e-03 0.0000000000000000e+00  -6.4741429502847420e-03 -1.0968424294493346e-02 0.0000000000000000e+00  -4.4000086687840494e-03 -1.2087849620882623e-02 0.0000000000000000e+00  -2.0322246222857342e-03 -1.1423725508488743e-02 0.0000000000000000e+00  0.0000000000000000e+00 0.0000000000000000e+00 0.0000000000000000e+00  0.0000000000000000e+00 0.0000000000000000e+00 0.0000000000000000e+00  -2.7883185983887111e-03 1.3987772566926735e-02 0.0000000000000000e+00  -5.5913785777404017e-03 1.4245454331777742e-02 0.0000000000000000e+00  -7.9466191503568939e-03 1.2689181498287763e-02 0.0000000000000000e+00  -9.7520831915440583e-03 1.0779458868508144e-02 0.0000000000000000e+00  -1.1039022769836015e-02 8.7892211992307828e-03 0.0000000000000000e+00  -1.1903405