<?xml version="1.0"?>
<VTKFile type="UnstructuredGrid"  version="0.1"  >
<UnstructuredGrid>
<Piece  NumberOfPoints="441" NumberOfCells="800">
<Points>
<DataArray  type="Float64"  NumberOfComponents="3"  format="ascii">0 0 0  0.05 0 0  0.1 0 0  0.15 0 0  0.2 0 0  0.25 0 0  0.3 0 0  0.35 0 0  0.4 0 0  0.45 0 0  0.5 0 0  0.55 0 0  0.6 0 0  0.65 0 0  0.7 0 0  0.75 0 0  0.8 0 0  0.85 0 0  0.9 0 0  0.95 0 0  1 0 0  0 0.05 0  0.05 0.05 0  0.1 0.05 0  0.15 0.05 0  0.2 0.05 0  0.25 0.05 0  0.3 0.05 0  0.35 0.05 0  0.4 0.05 0  0.45 0.05 0  0.5 0.05 0  0.55 0.05 0  0.6 0.05 0  0.65 0.05 0  0.7 0.05 0  0.75 0.05 0  0.8 0.05 0  0.85 0.05 0  0.9 0.05 0  0.95 0.05 0  1 0.05 0  0 0.1 0  0.05 0.1 0  0.1 0.1 0  0.15 0.1 0  0.2 0.1 0  0.25 0.1 0  0.3 0.1 0  0.35 0.1 0  0.4 0.1 0  0.45 0.1 0  0.5 0.1 0  0.55 0.1 0  0.6 0.1 0  0.65 0.1 0  0.7 0.1 0  0.75 0.1 0  0.8 0.1 0  0.85 0.1 0  0.9 0.1 0  0.95 0.1 0  1 0.1 0  0 0.15 0  0.05 0.15 0  0.1 0.15 0  0.15 0.15 0  0.2 0.15 0  0.25 0.15 0  0.3 0.15 0  0.35 0.15 0  0.4 0.15 0  0.45 0.15 0  0.5 0.15 0  0.55 0.15 0  0.6 0.15 0  0.65 0.15 0  0.7 0.15 0  0.75 0.15 0  0.8 0.15 0  0.85 0.15 0  0.9 0.15 0  0.95 0.15 0  1 0.15 0  0 0.2 0  0.05 0.2 0  0.1 0.2 0  0.15 0.2 0  0.2 0.2 0  0.25 0.2 0  0.3 0.2 0  0.35 0.2 0  0.4 0.2 0  0.45 0.2 0  0.5 0.2 0  0.55 0.2 0  0.6 0.2 0  0.65 0.2 0  0.7 0.2 0  0.75 0.2 0  0.8 0.2 0  0.85 0.2 0  0.9 0.2 0  0.95 0.2 0  1 0.2 0  0 0.25 0  0.05 0.25 0  0.1 0.25 0  0.15 0.25 0  0.2 0.25 0  0.25 0.25 0  0.3 0.25 0  0.35 0.25 0  0.4 0.25 0  0.45 0.25 0  0.5 0.25 0  0.55 0.25 0  0.6 0.25 0  0.65 0.25 0  0.7 0.25 0  0.75 0.25 0  0.8 0.25 0  0.85 0.25 0  0.9 0.25 0  0.95 0.25 0  1 0.25 0  0 0.3 0  0.05 0.3 0  0.1 0.3 0  0.15 0.3 0  0.2 0.3 0  0.25 0.3 0  0.3 0.3 0  0.35 0.3 0  0.4 0.3 0  0.45 0.3 0  0.5 0.3 0  0.55 0.3 0  0.6 0.3 0  0.65 0.3 0  0.7 0.3 0  0.75 0.3 0  0.8 0.3 0  0.85 0.3 0  0.9 0.3 0  0.95 0.3 0  1 0.3 0  0 0.35 0  0.05 0.35 0  0.1 0.35 0  0.15 0.35 0  0.2 0.35 0  0.25 0.35 0  0.3 0.35 0  0.35 0.35 0  0.4 0.35 0  0.45 0.35 0  0.5 0.35 0  0.55 0.35 0  0.6 0.35 0  0.65 0.35 0  0.7 0.35 0  0.75 0.35 0  0.8 0.35 0  0.85 0.35 0  0.9 0.35 0  0.95 0.35 0  1 0.35 0  0 0.4 0  0.05 0.4 0  0.1 0.4 0  0.15 0.4 0  0.2 0.4 0  0.25 0.4 0  0.3 0.4 0  0.35 0.4 0  0.4 0.4 0  0.45 0.4 0  0.5 0.4 0  0.55 0.4 0  0.6 0.4 0  0.65 0.4 0  0.7 0.4 0  0.75 0.4 0  0.8 0.4 0  0.85 0.4 0  0.9 0.4 0  0.95 0.4 0  1 0.4 0  0 0.45 0  0.05 0.45 0  0.1 0.45 0  0.15 0.45 0  0.2 0.45 0  0.25 0.45 0  0.3 0.45 0  0.35 0.45 0  0.4 0.45 0  0.45 0.45 0  0.5 0.45 0  0.55 0.45 0  0.6 0.45 0  0.65 0.45 0  0.7 0.45 0  0.75 0.45 0  0.8 0.45 0  0.85 0.45 0  0.9 0.45 0  0.95 0.45 0  1 0.45 0  0 0.5 0  0.05 0.5 0  0.1 0.5 0  0.15 0.5 0  0.2 0.5 0  0.25 0.5 0  0.3 0.5 0  0.35 0.5 0  0.4 0.5 0  0.45 0.5 0  0.5 0.5 0  0.55 0.5 0  0.6 0.5 0  0.65 0.5 0  0.7 0.5 0  0.75 0.5 0  0.8 0.5 0  0.85 0.5 0  0.9 0.5 0  0.95 0.5 0  1 0.5 0  0 0.55 0  0.05 0.55 0  0.1 0.55 0  0.15 0.55 0  0.2 0.55 0  0.25 0.55 0  0.3 0.55 0  0.35 0.55 0  0.4 0.55 0  0.45 0.55 0  0.5 0.55 0  0.55 0.55 0  0.6 0.55 0  0.65 0.55 0  0.7 0.55 0  0.75 0.55 0  0.8 0.55 0  0.85 0.55 0  0.9 0.55 0  0.95 0.55 0  1 0.55 0  0 0.6 0  0.05 0.6 0  0.1 0.6 0  0.15 0.6 0  0.2 0.6 0  0.25 0.6 0  0.3 0.6 0  0.35 0.6 0  0.4 0.6 0  0.45 0.6 0  0.5 0.6 0  0.55 0.6 0  0.6 0.6 0  0.65 0.6 0  0.7 0.6 0  0.75 0.6 0  0.8 0.6 0  0.85 0.6 0  0.9 0.6 0  0.95 0.6 0  1 0.6 0  0 0.65 0  0.05 0.65 0  0.1 0.65 0  0.15 0.65 0  0.2 0.65 0  0.25 0.65 0  0.3 0.65 0  0.35 0.65 0  0.4 0.65 0  0.45 0.65 0  0.5 0.65 0  0.55 0.65 0  0.6 0.65 0  0.65 0.65 0  0.7 0.65 0  0.75 0.65 0  0.8 0.65 0  0.85 0.65 0  0.9 0.65 0  0.95 0.65 0  1 0.65 0  0 0.7 0  0.05 0.7 0  0.1 0.7 0  0.15 0.7 0  0.2 0.7 0  0.25 0.7 0  0.3 0.7 0  0.35 0.7 0  0.4 0.7 0  0.45 0.7 0  0.5 0.7 0  0.55 0.7 0  0.6 0.7 0  0.65 0.7 0  0.7 0.7 0  0.75 0.7 0  0.8 0.7 0  0.85 0.7 0  0.9 0.7 0  0.95 0.7 0  1 0.7 0  0 0.75 0  0.05 0.75 0  0.1 0.75 0  0.15 0.75 0  0.2 0.75 0  0.25 0.75 0  0.3 0.75 0  0.35 0.75 0  0.4 0.75 0  0.45 0.75 0  0.5 0.75 0  0.55 0.75 0  0.6 0.75 0  0.65 0.75 0  0.7 0.75 0  0.75 0.75 0  0.8 0.75 0  0.85 0.75 0  0.9 0.75 0  0.95 0.75 0  1 0.75 0  0 0.8 0  0.05 0.8 0  0.1 0.8 0  0.15 0.8 0  0.2 0.8 0  0.25 0.8 0  0.3 0.8 0  0.35 0.8 0  0.4 0.8 0  0.45 0.8 0  0.5 0.8 0  0.55 0.8 0  0.6 0.8 0  0.65 0.8 0  0.7 0.8 0  0.75 0.8 0  0.8 0.8 0  0.85 0.8 0  0.9 0.8 0  0.95 0.8 0  1 0.8 0  0 0.85 0  0.05 0.85 0  0.1 0.85 0  0.15 0.85 0  0.2 0.85 0  0.25 0.85 0  0.3 0.85 0  0.35 0.85 0  0.4 0.85 0  0.45 0.85 0  0.5 0.85 0  0.55 0.85 0  0.6 0.85 0  0.65 0.85 0  0.7 0.85 0  0.75 0.85 0  0.8 0.85 0  0.85 0.85 0  0.9 0.85 0  0.95 0.85 0  1 0.85 0  0 0.9 0  0.05 0.9 0  0.1 0.9 0  0.15 0.9 0  0.2 0.9 0  0.25 0.9 0  0.3 0.9 0  0.35 0.9 0  0.4 0.9 0  0.45 0.9 0  0.5 0.9 0  0.55 0.9 0  0.6 0.9 0  0.65 0.9 0  0.7 0.9 0  0.75 0.9 0  0.8 0.9 0  0.85 0.9 0  0.9 0.9 0  0.95 0.9 0  1 0.9 0  0 0.95 0  0.05 0.95 0  0.1 0.95 0  0.15 0.95 0  0.2 0.95 0  0.25 0.95 0  0.3 0.95 0  0.35 0.95 0  0.4 0.95 0  0.45 0.95 0  0.5 0.95 0  0.55 0.95 0  0.6 0.95 0  0.65 0.95 0  0.7 0.95 0  0.75 0.95 0  0.8 0.95 0  0.85 0.95 0  0.9 0.95 0  0.95 0.95 0  1 0.95 0  0 1 0  0.05 1 0  0.1 1 0  0.15 1 0  0.2 1 0  0.25 1 0  0.3 1 0  0.35 1 0  0.4 1 0  0.45 1 0  0.5 1 0  0.55 1 0  0.6 1 0  0.65 1 0  0.7 1 0  0.75 1 0  0.8 1 0  0.85 1 0  0.9 1 0  0.95 1 0  1 1 0  </DataArray>
</Points>
<Cells>
[...]
<PointData  Vectors="f_137"> 
<DataArray  type="Float64"  Name="f_137"  NumberOfComponents="3" format="ascii">0.0000000000000000e+00 0.0000000000000000e+00 0.0000000000000000e+00  0.0000000000000000e+00 0.0000000000000000e+00 0.0000000000000000e+00  0.0000000000000000e+00 0.0000000000000000e+00 0.0000000000000000e+00  0.0000000000000000e+00 0.0000000000000000e+00 0.0000000000000000e+00  0.0000000000000000e+00 0.0000000000000000e+00 0.0000000000000000e+00  0.0000000000000000e+00 0.0000000000000000e+00 0.0000000000000000e+00  0.0000000000000000e+00 0.0000000000000000e+00 0.0000000000000000e+00  0.0000000000000000e+00 0.0000000000000000e+00 0.0000000000000000e+00  0.0000000000000000e+00 0.0000000000000000e+00 0.0000000000000000e+00  0.0000000000000000e+00 0.0000000000000000e+00 0.0000000000000000e+00  0.0000000000000000e+00 0.0000000000000000e+00 0.0000000000000000e+00  0.0000000000000000e+00 0.0000000000000000e+00 0.0000000000000000e+00  0.0000000000000000e+00 0.0000000000000000e+00 0.0000000000000000e+00  0.0000000000000000e+00 0.0000000000000000e+00 0.0000000000000000e+00  0.0000000000000000e+00 0.0000000000000000e+00 0.0000000000000000e+00  0.0000000000000000e+00 0.0000000000000000e+00 0.0000000000000000e+00  0.0000000000000000e+00 0.0000000000000000e+00 0.0000000000000000e+00  0.0000000000000000e+00 0.0000000000000000e+00 0.0000000000000000e+00  0.0000000000000000e+00 0.0000000000000000e+00 0.0000000000000000e+00  0.0000000000000000e+00 0.0000000000000000e+00 0.0000000000000000e+00  0.0000000000000000e+00 0.0000000000000000e+00 0.0000000000000000e+00  0.0000000000000000e+00 0.0000000000000000e+00 0.0000000000000000e+00  -8.2092344553085525e-04 8.1251893337345343e-04 0.0000000000000000e+00  -2.0826000137662893e-03 8.2697074636387360e-04 0.0000000000000000e+00  -3.2988191770680140e-03 7.7980450110550718e-04 0.0000000000000000e+00  -4.4292692625306955e-03 7.1386448665118857e-04 0.0000000000000000e+00  -5.4458493973346201e-03 6.2973797157925455e-04 0.0000000000000000e+00  -6.3222359792300224e-03 5.2958392994281354e-04 0.0000000000000000e+00  -7.0362838068669647e-03 4.1577890102924162e-04 0.0000000000000000e+00  -7.5696441292517659e-03 2.9088817907853168e-04 0.0000000000000000e+00  -7.9080749842899613e-03 1.5764094980625878e-04 0.0000000000000000e+00  -8.0416256458691014e-03 1.8923240896115621e-05 0.0000000000000000e+00  -7.9648340034686512e-03 -1.2218836700401967e-04 0.0000000000000000e+00  -7.6769868170393036e-03 -2.6237967509880762e-04 0.0000000000000000e+00  -7.1824456961397829e-03 -3.9806528881337569e-04 0.0000000000000000e+00  -6.4910081073739452e-03 -5.2539889287007611e-04 0.0000000000000000e+00  -5.6181932828032041e-03 -6.4036387138274159e-04 0.0000000000000000e+00  -4.5853523841198583e-03 -7.3899946521873859e-04 0.0000000000000000e+00  -3.4195333138709420e-03 -8.1700984483685786e-04 0.0000000000000000e+00  -2.1574531829147625e-03 -8.6695640381480679e-04 0.0000000000000000e+00  -8.3449390386063820e-04 -8.3231728348791246e-04 0.0000000000000000e+00  0.0000000000000000e+00 0.0000000000000000e+00 0.0000000000000000e+00  0.0000000000000000e+00 0.0000000000000000e+00 0.0000000000000000e+00  -8.8662126769639097e-04 2.1060388054671051e-03 0.0000000000000000e+00  -2.2418125041799696e-03 2.1377717338695668e-03 0.0000000000000000e+00  -3.5497414589575824e-03 2.0232263522186340e-03 0.0000000000000000e+00  -4.7679665439993761e-03 1.8518271849017737e-03 0.0000000000000000e+00  -5.8627985732267567e-03 1.6335357659662932e-03 0.0000000000000000e+00  -6.8068108249813757e-03 1.3739467564641943e-03 0.0000000000000000e+00  -7.5763946899531269e-03 1.0793669926072072e-03 0.0000000000000000e+00  -8.1521173161098158e-03 7.5656849633609310e-04 0.0000000000000000e+00  -8.5189131211473347e-03 4.1264061083061675e-04 0.0000000000000000e+00  -8.6661751553374616e-03 5.4987437281551498e-05 0.0000000000000000e+00  -8.5879069797185088e-03 -3.0857759620082968e-04 0.0000000000000000e+00  -8.2829798729266470e-03 -6.6969112950050346e-04 0.0000000000000000e+00  -7.7555126132437891e-03 -1.0193239259795811e-03 0.0000000000000000e+00  -7.0153355490472531e-03 -1.3477701847129629e-03 0.0000000000000000e+00  -6.0784237613236052e-03 -1.6448272654406692e-03 0.0000000000000000e+00  -4.9674750500555741e-03 -1.9002470601090680e-03 0.0000000000000000e+00  -3.7106358552614466e-03 -2.1037357285620391e-03 0.0000000000000000e+00  -2.3476344104134102e-03 -2.2350623985775203e-03 0.0000000000000000e+00  -9.2617191219036582e-04 -2.1917831682874592e-03 0.0000000000000000e+00  0.0000000000000000e+00 0.0000000000000000e+00 0.0000000000000000e+00  0.0000000000000000e+00 0.0000000000000000e+00 0.0000000000000000e+00  -9.3395756526539646e-04 3.4633588443327853e-03 0.0000000000000000e+00  -2.3688423315661429e-03 3.5144291699759486e-03 0.0000000000000000e+00  -3.7519592774448250e-03 3.3260405850965499e-03 0.0000000000000000e+00  -5.0398288404655770e-03 3.0432783725574488e-03 0.0000000000000000e+00  -6.1967366448909839e-03 2.6835571616032217e-03 0.0000000000000000e+00  -7.1943440186258934e-03 2.2564423083974530e-03 0.0000000000000000e+00  -8.0082288595650902e-03 1.7725156136603759e-03 0.0000000000000000e+00  -8.6185003948441429e-03 1.2429342245275966e-03 0.0000000000000000e+00  -9.0097168603374949e-03 6.7919671584794979e-04 0.0000000000000000e+00  -9.1708284579579118e-03 9.3169404355907985e-05 0.0000000000000000e+00  -9.0952191914504196e-03 -5.0270761709328958e-04 0.0000000000000000e+00  -8.7809370378875880e-03 -1.0951125253660411e-03 0.0000000000000000e+00  -8.2311562125962495e-03 -1.6695586689153368e-03 0.0000000000000000e+00  -7.4548414218270883e-03 -2.2102839791815743e-03 0.0000000000000000e+00  -6.4674831469194744e-03 -2.7004707507803970e-03 0.0000000000000000e+00  -5.2919683214687268e-03 -3.1229452348208570e-03 0.0000000000000000e+00  -3.9574611072802262e-03 -3.4602182373175976e-03 0.0000000000000000e+00  -2.5069633546938516e-03 -3.6815300564969062e-03 0.0000000000000000e+00  -9.8828702154969087e-04 -3.6198888207646550e-03 0.0000000000000000e+00  0.0000000000000000e+00 0.0000000000000000e+00 0.0000000000000000e+00  0.0000000000000000e+00 0.0000000000000000e+00 0.0000000000000000e+00  -1.0073602342587926e-03 4.9109859861543176e-03 0.0000000000000000e+00  -2.5535023612637776e-03 4.9851497401542230e-03 0.0000000000000000e+00  -4.0436020231578379e-03 4.7176632785489647e-03 0.0000000000000000e+00  -5.4296846141381368e-03 4.3154307422212579e-03 0.0000000000000000e+00  -6.6737029349634098e-03 3.8044101729270189e-03 0.0000000000000000e+00  -7.7459634170343123e-03 3.1989136889887674e-03 0.0000000000000000e+00  -8.6212623752602163e-03 2.5141932110645513e-03 0.0000000000000000e+00  -9.2793571941012960e-03 1.7659995098024497e-03 0.0000000000000000e+00  -9.7045528318597234e-03 9.7022913362669616e-04 0.0000000000000000e+00  -9.8853648480973673e-03 1.4300101864874579e-04 0.0000000000000000e+00  -9.8143503283900872e-03 -6.9893670131593159e-04 0.0000000000000000e+00  -9.4882660219341129e-03 -1.5376012795883904e-03 0.0000000000000000e+00  -8.9086420574524677e-03 -2.3531703625865956e-03 0.0000000000000000e+00  -8.0827603359075635e-03 -3.1236201207093506e-03 0.0000000000000000e+00  -7.0248744916287364e-03 -3.8248753045618195e-03 0.0000000000000000e+00  -5.7577194674317891e-03 -4.4317380791158260e-03 0.0000000000000000e+00  -4.3116825646032121e-03 -4.9183048765561290e-03 0.0000000000000000e+00  -2.7338499053806671e-03 -5.2406246969187832e-03 0.0000000000000000e+00  -1.0775267247439295e-03 -5.1618398261225034e-03 0.0000000000000000e+00  0.0000000000000000e+00 0.0000000000000000e+00 0.0000000000000000e+00  0.0000000000000000e+00 0.0000000000000000e+00 0.0000000000000000e+00  -1.1079843975989074e-03 6.4884548104022742e-03 0.0000000000000000e+00  -2.8069836178756680e-03 6.5857207280910100e-03 0.0000000000000000e+00  -4.4429206758624766e-03 6.2301260264636610e-03 0.0000000000000000e+00  -5.9619653110447052e-03 5.6960683199419153e-03 0.0000000000000000e+00  -7.3231407029164045e-03 5.0194501152478650e-03 0.0000000000000000e+00  -8.4950332040555961e-03 4.2201820670352431e-03 0.0000000000000000e+00  -9.4518216541535083e-03 3.3188870168875929e-03 0.0000000000000000e+00  -1.0173265420138746e-02 2.3362317917201016e-03 0.0000000000000000e+00  -1.0643796349267856e-02 1.2924266935578391e-03 0.0000000000000000e+00  -1.0851695025573097e-02 2.0741272780285637e-04 0.0000000000000000e+00  -1.0788551751339468e-02 -8.9839470540703395e-04 0.0000000000000000e+00  -1.0449260698717027e-02 -2.0030000057494942e-03 0.0000000000000000e+00  -9.8327105184770128e-03 -3.0816485475743879e-03 0.0000000000000000e+00  -8.9432106117289557e-03 -4.1059482213470265e-03 0.0000000000000000e+00  -7.7924785879203515e-03 -5.0437359406200885e-03 0.0000000000000000e+00  -6.4022129887673362e-03 -5.8601722157719085e-03 0.0000000000000000e+00  -4.8039081765068161e-03 -6.5185767525369363e-03 0.0000000000000000e+00  -3.0503836819135363e-03 -6.9585679158946055e-03 0.0000000000000000e+00  -1.2024379521841703e-03 -6.8643077295192090e-03 0.0000000000000000e+00  0.0000000000000000e+00 0.0000000000000000e+00 0.0000000000000000e+00  0.0000000000000000e+00 0.0000000000000000e+00 0.0000000000000000e+00  -1.2394932882774168e-03 8.2383787853151265e-03 0.0000000000000000e+00  -3.1380050290825091e-03 8.3590797028981079e-03 0.0000000000000000e+00  -4.9629131311388422e-03 7.9027944671009199e-03 0.0000000000000000e+00  -6.6528461045766169e-03 7.2195777678835645e-03 0.0000000000000000e+00  -8.1629747961436908e-03 6.3574780083314247e-03 0.0000000000000000e+00  -9.4601719661542589e-03 5.3435815872118859e-03 0.0000000000000000e+00  -1.0518560897451406e-02 4.2049601458391270e-03 0.0000000000000000e+00  -1.1318783225004491e-02 2.9676559821662524e-03 0.0000000000000000e+00  -1.1846276318280563e-02 1.6559925452361911e-03 0.0000000000000000e+00  -1.2089665884019605e-02 2.9295960120993787e-04 0.0000000000000000e+00  -1.2039609563803778e-02 -1.0985137884505002e-03 0.0000000000000000e+00  -1.1688457626357613e-02 -2.4936602828914468e-03 0.0000000000000000e+00  -1.1031011254997891e-02 -3.8637385641842811e-03 0.0000000000000000e+00  -1.0066529179128628e-02 -5.1741970608472658e-03 0.0000000000000000e+00  -8.8018568227237262e-03 -6.3838428206743122e-03 0.0000000000000000e+00  -7.2557203477386645e-03 -7.4458693080027439e-03 0.0000000000000000e+00  -5.4598697885713783e-03 -8.3091931180477637e-03 0.0000000000000000e+00  -3.4742606875644492e-03 -8.8918607133126482e-03 0.0000000000000000e+00  -1.3704691623888437e-03 -8.7854085564173390e-03 0.0000000000000000e+00  0.0000000000000000e+00 0.0000000000000000e+00 0.0000000000000000e+00  0.0000000000000000e+00 0.0000000000000000e+00 0.0000000000000000e+00  -1.4071272515732321e-03 1.0210498059166353e-02 0.0000000000000000e+00  -3.5592163443929369e-03 1.0353773237987826e-02 0.0000000000000000e+00  -5.6221215768444853e-03 9.7786843319841703e-03 0.0000000000000000e+00  -7.5245990405723847e-03 8.9220715347747368e-03 0.0000000000000000e+00  -9.2170946267902346e-03 7.8474566310066420e-03 0.0000000000000000e+00  -1.0665195321496089e-02 6.5915198148445266e-03 0.0000000000000000e+00  -1.1844262844112772e-02 5.1894197390789428e-03 0.0000000000000000e+00  -1.2737545415583343e-02 3.6732069891688922e-03 0.0000000000000000e+00  -1.3333169556304578e-02 2.0709129787298817e-03 0.0000000000000000e+00  -1.3621322441819024e-02 4.0726203349822490e-04 0.0000000000000000e+00  -1.3592115897697292e-02 -1.2942663476941745e-03 0.0000000000000000e+00  -1.3234626702541863e-02 -3.0083570032243242e-03 0.0000000000000000e+00  -1.2537554709224623e-02 -4.7042253555581951e-03 0.0000000000000000e+00  -1.1491869838585123e-02 -6.3421248336460786e-03 0.0000000000000000e+00  -1.0095524078987457e-02 -7.8710492500261055e-03 0.0000000000000000e+00  -8.3604572346266393e-03 -9.2291098526241771e-03 0.0000000000000000e+00  -6.3162778370922570e-03 -1.0345287963477919e-02 0.0000000000000000e+00  -4.0312624813076195e-03 -1.1107897125808957e-02 0.0000000000000000e+00  -1.5922338733892782e-03 -1.0996594579245596e-02 0.0000000000000000e+00  0.0000000000000000e+00 0.0000000000000000e+00 0.0000000000000000e+00  0.0000000000000000e+00 0.0000000000000000e+00 0.0000000000000000e+00  -1.6185130341963233e-03 1.2463748616758611e-02 0.0000000000000000e+00  -4.0888708412657434e-03 1.2626384664678870e-02 0.0000000000000000e+00  -6.4467872421751530e-03 1.1906458086668265e-02 0.0000000000000000e+00  -8.6079836693787916e-03 1.0842521194012349e-02 0.0000000000000000e+00  -1.0517410490414275e-02 9.5187138157254176e-03 0.0000000000000000e+00  -1.2140575164735962e-02 7.9850820844027063e-03 0.0000000000000000e+00  -1.3456568177564370e-02 6.2873034433929310e-03 0.0000000000000000e+00  -1.4454293364188294e-02 4.4642686637097950e-03 0.0000000000000000e+00  -1.5127484209208203e-02 2.5469695244858710e-03 0.0000000000000000e+00  -1.5470105237543873e-02 5.5975015954540990e-04 0.0000000000000000e+00  -1.5472754558033376e-02 -1.4765154707309799e-03 0.0000000000000000e+00  -1.5120641177130464e-02 -3.5397070982797776e-03 0.0000000000000000e+00  -1.4393749809200536e-02 -5.6006460106907668e-03 0.0000000000000000e+00  -1.3269948257159098e-02 -7.6169208012100715e-03 0.0000000000000000e+00  -1.1731630212618142e-02 -9.5277524350196440e-03 0.0000000000000000e+00  -9.7768036703173404e-03 -1.1252351656164688e-02 0.0000000000000000e+00  -7.4274594215204661e-03 -1.2691430572882521e-02 0.0000000000000000e+00  -4.7604378913237780e-03 -1.3690457800935460e-02 0.0000000000000000e+00  -1.8839883551911110e-03 -1.3588847546918827e-02 0.0000000000000000e+00  0.0000000000000000e+00 0.0000000000000000e+00 0.0000000000000000e+00  0.0000000000000000e+00 0.0000000000000000e+00 0.0000000000000000e+00  -1.8849736995036072e-03 1.5070616546344708e-02 0.0000000000000000e+00  -4.7536355569568721e-03 1.5244876136476120e-02 0.0000000000000000e+00  -7.4744320094718014e-03 1.4341953247870265e-02 0.0000000000000000e+00  -9.9456989362369328e-03 1.3022499895876774e-02 0.0000000000000000e+00  -1.2106464315119891e-02 1.1399310805388195e-02 0.0000000000000000e+00  -1.3924791221106653e-02 9.5416035648614155e-03 0.0000000000000000e+00  -1.5387957313020922e-02 7.5090733594447038e-03 0.0000000000000000e+00  -1.6495593565646050e-02 5.3484361168907322e-03 0.0000000000000000e+00  -1.7251758332524774e-02 3.0923266291772045e-03 0.0000000000000000e+00  -1.7657879278356336e-02 7.6146831774931228e-04 0.0000000000000000e+00  -1.7707157931284277e-02 -1.6306539529457942e-03 0.0000000000000000e+00  -1.7380886226766867e-02 -4.0710293101683592e-03 0.0000000000000000e+00  -1.6647372208035333e-02 -6.5384684708186596e-03 0.0000000000000000e+00  -1.5464721909599567e-02 -8.9934271405111774e-03 0.0000000000000000e+00  -1.3789141895582219e-02 -1.1367688166559772e-02 0.0000000000000000e+00  -1.1591740177570357e-02 -1.3557737485141880e-02 0.0000000000000000e+00  -8.8752074468637695e-03 -1.5423858814115236e-02 0.0000000000000000e+00  -5.7223440270937802e-03 -1.6747232337373338e-02 0.0000000000000000e+00  -2.2713364368278643e-03 -1.6683661797291926e-02 0.0000000000000000e+00  0.0000000000000000e+00 0.0000000000000000e+00 0.0000000000000000e+00  0.0000000000000000e+00 0.0000000000000000e+00 0.0000000000000000e+00  -2.2237651144392805e-03 1.8123748009507810e-02 0.0000000000000000e+00  -5.5934128038826608e-03 1.8293383354027696e-02 0.0000000000000000e+00  -8.7598191405137381e-03 1.7150117062386085e-02 0.0000000000000000e+00  -1.1597923049663296e-02 1.5505304493654615e-02 0.0000000000000000e+00  -1.4041430063414965e-02 1.3513087383254161e-02 0.0000000000000000e+00  -1.6066276410441751e-02 1.1270656548938216e-02 0.0000000000000000e+00  -1.7675622426080395e-02 8.8564865273774006e-03 0.0000000000000000e+00  -1.8887892742882235e-02 6.3259876095003668e-03 0.0000000000000000e+00  -1.9724639371900221e-02 3.7111385935743139e-03 0.0000000000000000e+00  -2.0200405927298055e-02 1.0243011221157772e-03 0.0000000000000000e+00  -2.0314759075579853e-02 -1.7352016511209933e-03 0.0000000000000000e+00  -2.0046368808570858e-02 -4.5721822935362449e-03 0.0000000000000000e+00  -1.9349477753038108e-02 -7.4838638162692409e-03 0.0000000000000000e+00  -1.8154184909103557e-02 -1.0444334066794087e-02 0.0000000000000000e+00  -1.6374517849026451e-02 -1.3385514809008313e-02 0.0000000000000000e+00  -1.3932216162702706e-02 -1.6180141193134840e-02 0.0000000000000000e+00  -1.0786325796775381e-02 -1.8632192203545922e-02 0.0000000000000000e+00  -7.0145291015994773e-03 -2.0422454102684454e-02 0.0000000000000000e+00  -2.7958925181916592e-03 -2.0451842134559996e-02 0.0000000000000000e+00  0.0000000000000000e+00 0.0000000000000000e+00 0.0000000000000000e+00  0.0000000000000000e+00 0.0000000000000000e+00 0.0000000000000000e+00  -2.6621017394530730e-03 2.1746651017735250e-02 0.0000000000000000e+00  -6.6697299133527200e-03 2.1879461314265842e-02 0.0000000000000000e+00  -1.0384881244463004e-02 2.0407178513050406e-02 0.0000000000000000e+00  -1.3651045368291806e-02 1.8333469899969389e-02 0.0000000000000000e+00  -1.6399948384073566e-02 1.5874147004453252e-02 0.0000000000000000e+00  -1.8625868103513028e-02 1.3167343095533504e-02 0.0000000000000000e+00  -2.0360872684084416e-02 1.0316102350392336e-02 0.0000000000000000e+00  -2.1654488627641594e-02 7.3844400565601029e-03 0.0000000000000000e+00  -2.2555923093576992e-02 4.3996158205440120e-03 0.0000000000000000e+00  -2.3100726102579648e-02 1.3589966359689280e-03 0.0000000000000000e+00  -2.3300790314835128e-02 -1.7610965891831365e-03 0.0000000000000000e+00  -2.3136118519917953e-02 -4.9950151544195876e-03 0.0000000000000000e+00  -2.2546936076941602e-02 -8.3736904620661211e-03 0.0000000000000000e+00  -2.1427105144726840e-02 -1.1903451064102850e-02 0.0000000000000000e+00  -1.9628701773557609e-02 -1.5535999766872347e-02 0.0000000000000000e+00  -1.6987394304400646e-02 -1.9132073867333815e-02 0.0000000000000000e+00  -1.3365412542099428e-02 -2.2421611169333885e-02 0.0000000000000000e+00  -8.8003578966143158e-03 -2.4918282076877813e-02 0.0000000000000000e+00  -3.5256009657584865e-03 -2.5142529447840907e-02 0.0000000000000000e+00  0.0000000000000000e+00 0.0000000000000000e+00 0.0000000000000000e+00  0.0000000000000000e+00 0.0000000000000000e+00 0.0000000000000000e+00  -3.2447254700216826e-03 2.6111390820657839e-02 0.0000000000000000e+00  -8.0807836485081060e-03 2.6145257889756121e-02 0.0000000000000000e+00  -1.2475554652264602e-02 2.4202441994487834e-02 0.0000000000000000e+00  -1.6231337960366826e-02 2.1542857849977861e-02 0.0000000000000000e+00  -1.9288202649956000e-02 1.8476840285690743e-02 0.0000000000000000e+00  -2.1679328564642844e-02 1.5201471279101158e-02 0.0000000000000000e+00  -2.3487393898756988e-02 1.1849643075232287e-02 0.0000000000000000e+00  -2.4810894097060669e-02 8.4908024254397654e-03 0.0000000000000000e+00  -2.5739789370746557e-02 5.1401847180614600e-03 0.0000000000000000e+00  -2.6340323279987959e-02 1.7712317619833170e-03 0.0000000000000000e+00  -2.6645000588562756e-02 -1.6730524776082919e-03 0.0000000000000000e+00  -2.6642848307336795e-02 -5.2696469440030678e-03 0.0000000000000000e+00  -2.6264843435002509e-02 -9.1016264515515668e-03 0.0000000000000000e+00  -2.5370674551597687e-02 -1.3239307772021248e-02 0.0000000000000000e+00  -2.3736801772217396e-02 -1.7704153421642770e-02 0.0000000000000000e+00  -2.1044101894160418e-02 -2.2383420353219649e-02 0.0000000000000000e+00  -1.6945975882301935e-02 -2.6901172018801805e-02 0.0000000000000000e+00  -1.1362994935185168e-02 -3.0499580340300300e-02 0.0000000000000000e+00  -4.5904107872103564e-03 -3.1128720980289064e-02 0.0000000000000000e+00  0.0000000000000000e+00 0.0000000000000000e+00 0.0000000000000000e+00  0.0000000000000000e+00 0.0000000000000000e+00 0.0000000000000000e+00  -4.0488096513418082e-03 3.1469572243306022e-02 0.0000000000000000e+00  -9.9892861911831717e-03 3.1284982493863148e-02 0.0000000000000000e+00  -1.5230861416713865e-02 2.8637424006754154e-02 0.0000000000000000e+00  -1.9525899068855424e-02 2.5149371895074529e-02 0.0000000000000000e+00  -2.2850926262062712e-02 2.1277751638445502e-02 0.0000000000000000e+00  -2.5318385682247868