<?xml version="1.0"?>
<VTKFile type="UnstructuredGrid"  version="0.1"  >
<UnstructuredGrid>
<Piece  NumberOfPoints="441" NumberOfCells="800">
<Points>
<DataArray  type="Float64"  NumberOfComponents="3"  format="ascii">0 0 0  0.05 0 0  0.1 0 0  0.15 0 0  0.2 0 0  0.25 0 0  0.3 0 0  0.35 0 0  0.4 0 0  0.45 0 0  0.5 0 0  0.55 0 0  0.6 0 0  0.65 0 0  0.7 0 0  0.75 0 0  0.8 0 0  0.85 0 0  0.9 0 0  0.95 0 0  1 0 0  0 0.05 0  0.05 0.05 0  0.1 0.05 0  0.15 0.05 0  0.2 0.05 0  0.25 0.05 0  0.3 0.05 0  0.35 0.05 0  0.4 0.05 0  0.45 0.05 0  0.5 0.05 0  0.55 0.05 0  0.6 0.05 0  0.65 0.05 0  0.7 0.05 0  0.75 0.05 0  0.8 0.05 0  0.85 0.05 0  0.9 0.05 0  0.95 0.05 0  1 0.05 0  0 0.1 0  0.05 0.1 0  0.1 0.1 0  0.15 0.1 0  0.2 0.1 0  0.25 0.1 0  0.3 0.1 0  0.35 0.1 0  0.4 0.1 0  0.45 0.1 0  0.5 0.1 0  0.55 0.1 0  0.6 0.1 0  0.65 0.1 0  0.7 0.1 0  0.75 0.1 0  0.8 0.1 0  0.85 0.1 0  0.9 0.1 0  0.95 0.1 0  1 0.1 0  0 0.15 0  0.05 0.15 0  0.1 0.15 0  0.15 0.15 0  0.2 0.15 0  0.25 0.15 0  0.3 0.15 0  0.35 0.15 0  0.4 0.15 0  0.45 0.15 0  0.5 0.15 0  0.55 0.15 0  0.6 0.15 0  0.65 0.15 0  0.7 0.15 0  0.75 0.15 0  0.8 0.15 0  0.85 0.15 0  0.9 0.15 0  0.95 0.15 0  1 0.15 0  0 0.2 0  0.05 0.2 0  0.1 0.2 0  0.15 0.2 0  0.2 0.2 0  0.25 0.2 0  0.3 0.2 0  0.35 0.2 0  0.4 0.2 0  0.45 0.2 0  0.5 0.2 0  0.55 0.2 0  0.6 0.2 0  0.65 0.2 0  0.7 0.2 0  0.75 0.2 0  0.8 0.2 0  0.85 0.2 0  0.9 0.2 0  0.95 0.2 0  1 0.2 0  0 0.25 0  0.05 0.25 0  0.1 0.25 0  0.15 0.25 0  0.2 0.25 0  0.25 0.25 0  0.3 0.25 0  0.35 0.25 0  0.4 0.25 0  0.45 0.25 0  0.5 0.25 0  0.55 0.25 0  0.6 0.25 0  0.65 0.25 0  0.7 0.25 0  0.75 0.25 0  0.8 0.25 0  0.85 0.25 0  0.9 0.25 0  0.95 0.25 0  1 0.25 0  0 0.3 0  0.05 0.3 0  0.1 0.3 0  0.15 0.3 0  0.2 0.3 0  0.25 0.3 0  0.3 0.3 0  0.35 0.3 0  0.4 0.3 0  0.45 0.3 0  0.5 0.3 0  0.55 0.3 0  0.6 0.3 0  0.65 0.3 0  0.7 0.3 0  0.75 0.3 0  0.8 0.3 0  0.85 0.3 0  0.9 0.3 0  0.95 0.3 0  1 0.3 0  0 0.35 0  0.05 0.35 0  0.1 0.35 0  0.15 0.35 0  0.2 0.35 0  0.25 0.35 0  0.3 0.35 0  0.35 0.35 0  0.4 0.35 0  0.45 0.35 0  0.5 0.35 0  0.55 0.35 0  0.6 0.35 0  0.65 0.35 0  0.7 0.35 0  0.75 0.35 0  0.8 0.35 0  0.85 0.35 0  0.9 0.35 0  0.95 0.35 0  1 0.35 0  0 0.4 0  0.05 0.4 0  0.1 0.4 0  0.15 0.4 0  0.2 0.4 0  0.25 0.4 0  0.3 0.4 0  0.35 0.4 0  0.4 0.4 0  0.45 0.4 0  0.5 0.4 0  0.55 0.4 0  0.6 0.4 0  0.65 0.4 0  0.7 0.4 0  0.75 0.4 0  0.8 0.4 0  0.85 0.4 0  0.9 0.4 0  0.95 0.4 0  1 0.4 0  0 0.45 0  0.05 0.45 0  0.1 0.45 0  0.15 0.45 0  0.2 0.45 0  0.25 0.45 0  0.3 0.45 0  0.35 0.45 0  0.4 0.45 0  0.45 0.45 0  0.5 0.45 0  0.55 0.45 0  0.6 0.45 0  0.65 0.45 0  0.7 0.45 0  0.75 0.45 0  0.8 0.45 0  0.85 0.45 0  0.9 0.45 0  0.95 0.45 0  1 0.45 0  0 0.5 0  0.05 0.5 0  0.1 0.5 0  0.15 0.5 0  0.2 0.5 0  0.25 0.5 0  0.3 0.5 0  0.35 0.5 0  0.4 0.5 0  0.45 0.5 0  0.5 0.5 0  0.55 0.5 0  0.6 0.5 0  0.65 0.5 0  0.7 0.5 0  0.75 0.5 0  0.8 0.5 0  0.85 0.5 0  0.9 0.5 0  0.95 0.5 0  1 0.5 0  0 0.55 0  0.05 0.55 0  0.1 0.55 0  0.15 0.55 0  0.2 0.55 0  0.25 0.55 0  0.3 0.55 0  0.35 0.55 0  0.4 0.55 0  0.45 0.55 0  0.5 0.55 0  0.55 0.55 0  0.6 0.55 0  0.65 0.55 0  0.7 0.55 0  0.75 0.55 0  0.8 0.55 0  0.85 0.55 0  0.9 0.55 0  0.95 0.55 0  1 0.55 0  0 0.6 0  0.05 0.6 0  0.1 0.6 0  0.15 0.6 0  0.2 0.6 0  0.25 0.6 0  0.3 0.6 0  0.35 0.6 0  0.4 0.6 0  0.45 0.6 0  0.5 0.6 0  0.55 0.6 0  0.6 0.6 0  0.65 0.6 0  0.7 0.6 0  0.75 0.6 0  0.8 0.6 0  0.85 0.6 0  0.9 0.6 0  0.95 0.6 0  1 0.6 0  0 0.65 0  0.05 0.65 0  0.1 0.65 0  0.15 0.65 0  0.2 0.65 0  0.25 0.65 0  0.3 0.65 0  0.35 0.65 0  0.4 0.65 0  0.45 0.65 0  0.5 0.65 0  0.55 0.65 0  0.6 0.65 0  0.65 0.65 0  0.7 0.65 0  0.75 0.65 0  0.8 0.65 0  0.85 0.65 0  0.9 0.65 0  0.95 0.65 0  1 0.65 0  0 0.7 0  0.05 0.7 0  0.1 0.7 0  0.15 0.7 0  0.2 0.7 0  0.25 0.7 0  0.3 0.7 0  0.35 0.7 0  0.4 0.7 0  0.45 0.7 0  0.5 0.7 0  0.55 0.7 0  0.6 0.7 0  0.65 0.7 0  0.7 0.7 0  0.75 0.7 0  0.8 0.7 0  0.85 0.7 0  0.9 0.7 0  0.95 0.7 0  1 0.7 0  0 0.75 0  0.05 0.75 0  0.1 0.75 0  0.15 0.75 0  0.2 0.75 0  0.25 0.75 0  0.3 0.75 0  0.35 0.75 0  0.4 0.75 0  0.45 0.75 0  0.5 0.75 0  0.55 0.75 0  0.6 0.75 0  0.65 0.75 0  0.7 0.75 0  0.75 0.75 0  0.8 0.75 0  0.85 0.75 0  0.9 0.75 0  0.95 0.75 0  1 0.75 0  0 0.8 0  0.05 0.8 0  0.1 0.8 0  0.15 0.8 0  0.2 0.8 0  0.25 0.8 0  0.3 0.8 0  0.35 0.8 0  0.4 0.8 0  0.45 0.8 0  0.5 0.8 0  0.55 0.8 0  0.6 0.8 0  0.65 0.8 0  0.7 0.8 0  0.75 0.8 0  0.8 0.8 0  0.85 0.8 0  0.9 0.8 0  0.95 0.8 0  1 0.8 0  0 0.85 0  0.05 0.85 0  0.1 0.85 0  0.15 0.85 0  0.2 0.85 0  0.25 0.85 0  0.3 0.85 0  0.35 0.85 0  0.4 0.85 0  0.45 0.85 0  0.5 0.85 0  0.55 0.85 0  0.6 0.85 0  0.65 0.85 0  0.7 0.85 0  0.75 0.85 0  0.8 0.85 0  0.85 0.85 0  0.9 0.85 0  0.95 0.85 0  1 0.85 0  0 0.9 0  0.05 0.9 0  0.1 0.9 0  0.15 0.9 0  0.2 0.9 0  0.25 0.9 0  0.3 0.9 0  0.35 0.9 0  0.4 0.9 0  0.45 0.9 0  0.5 0.9 0  0.55 0.9 0  0.6 0.9 0  0.65 0.9 0  0.7 0.9 0  0.75 0.9 0  0.8 0.9 0  0.85 0.9 0  0.9 0.9 0  0.95 0.9 0  1 0.9 0  0 0.95 0  0.05 0.95 0  0.1 0.95 0  0.15 0.95 0  0.2 0.95 0  0.25 0.95 0  0.3 0.95 0  0.35 0.95 0  0.4 0.95 0  0.45 0.95 0  0.5 0.95 0  0.55 0.95 0  0.6 0.95 0  0.65 0.95 0  0.7 0.95 0  0.75 0.95 0  0.8 0.95 0  0.85 0.95 0  0.9 0.95 0  0.95 0.95 0  1 0.95 0  0 1 0  0.05 1 0  0.1 1 0  0.15 1 0  0.2 1 0  0.25 1 0  0.3 1 0  0.35 1 0  0.4 1 0  0.45 1 0  0.5 1 0  0.55 1 0  0.6 1 0  0.65 1 0  0.7 1 0  0.75 1 0  0.8 1 0  0.85 1 0  0.9 1 0  0.95 1 0  1 1 0  </DataArray>
</Points>
<Cells>
[...]
<PointData  Vectors="f_137"> 
<DataArray  type="Float64"  Name="f_137"  NumberOfComponents="3" format="ascii">0.0000000000000000e+00 0.0000000000000000e+00 0.0000000000000000e+00  0.0000000000000000e+00 0.0000000000000000e+00 0.0000000000000000e+00  0.0000000000000000e+00 0.0000000000000000e+00 0.0000000000000000e+00  0.0000000000000000e+00 0.0000000000000000e+00 0.0000000000000000e+00  0.0000000000000000e+00 0.0000000000000000e+00 0.0000000000000000e+00  0.0000000000000000e+00 0.0000000000000000e+00 0.0000000000000000e+00  0.0000000000000000e+00 0.0000000000000000e+00 0.0000000000000000e+00  0.0000000000000000e+00 0.0000000000000000e+00 0.0000000000000000e+00  0.0000000000000000e+00 0.0000000000000000e+00 0.0000000000000000e+00  0.0000000000000000e+00 0.0000000000000000e+00 0.0000000000000000e+00  0.0000000000000000e+00 0.0000000000000000e+00 0.0000000000000000e+00  0.0000000000000000e+00 0.0000000000000000e+00 0.0000000000000000e+00  0.0000000000000000e+00 0.0000000000000000e+00 0.0000000000000000e+00  0.0000000000000000e+00 0.0000000000000000e+00 0.0000000000000000e+00  0.0000000000000000e+00 0.0000000000000000e+00 0.0000000000000000e+00  0.0000000000000000e+00 0.0000000000000000e+00 0.0000000000000000e+00  0.0000000000000000e+00 0.0000000000000000e+00 0.0000000000000000e+00  0.0000000000000000e+00 0.0000000000000000e+00 0.0000000000000000e+00  0.0000000000000000e+00 0.0000000000000000e+00 0.0000000000000000e+00  0.0000000000000000e+00 0.0000000000000000e+00 0.0000000000000000e+00  0.0000000000000000e+00 0.0000000000000000e+00 0.0000000000000000e+00  0.0000000000000000e+00 0.0000000000000000e+00 0.0000000000000000e+00  -8.2458952217424951e-04 8.1622818731143590e-04 0.0000000000000000e+00  -2.1057591289773900e-03 8.3646807006242010e-04 0.0000000000000000e+00  -3.3435176072143212e-03 7.8896904832648793e-04 0.0000000000000000e+00  -4.4943602514946578e-03 7.2268361371267563e-04 0.0000000000000000e+00  -5.5298703464294633e-03 6.3798812015630529e-04 0.0000000000000000e+00  -6.4231963360528070e-03 5.3703602722478445e-04 0.0000000000000000e+00  -7.1517175700504323e-03 4.2219299808742987e-04 0.0000000000000000e+00  -7.6966278620361249e-03 2.9602069799010080e-04 0.0000000000000000e+00  -8.0432628904022856e-03 1.6125490937792046e-04 0.0000000000000000e+00  -8.1813003353958004e-03 2.0800758018728059e-05 0.0000000000000000e+00  -8.1049765883128254e-03 -1.2223072619712918e-04 0.0000000000000000e+00  -7.8133703294289442e-03 -2.6447318936593991e-04 0.0000000000000000e+00  -7.3107545676470223e-03 -4.0227015383873465e-04 0.0000000000000000e+00  -6.6069852481323698e-03 -5.3168586216995896e-04 0.0000000000000000e+00  -5.7178093455258318e-03 -6.4859665220445937e-04 0.0000000000000000e+00  -4.6650003355740433e-03 -7.4893596030444756e-04 0.0000000000000000e+00  -3.4761778300006793e-03 -8.2834993755817219e-04 0.0000000000000000e+00  -2.1890009036470595e-03 -8.7875956847737499e-04 0.0000000000000000e+00  -8.4187513796112317e-04 -8.3979115572945862e-04 0.0000000000000000e+00  0.0000000000000000e+00 0.0000000000000000e+00 0.0000000000000000e+00  0.0000000000000000e+00 0.0000000000000000e+00 0.0000000000000000e+00  -8.9627664756338388e-04 2.1294722101526256e-03 0.0000000000000000e+00  -2.2789906674485997e-03 2.1740751451422690e-03 0.0000000000000000e+00  -3.6155067253879889e-03 2.0582918391302452e-03 0.0000000000000000e+00  -4.8608644853240348e-03 1.8848422576401888e-03 0.0000000000000000e+00  -5.9806187220012106e-03 1.6636663092698661e-03 0.0000000000000000e+00  -6.9466931119583301e-03 1.4003815187069843e-03 0.0000000000000000e+00  -7.7348789506045549e-03 1.1013200635572758e-03 0.0000000000000000e+00  -8.3251889248626976e-03 7.7329674537550560e-04 0.0000000000000000e+00  -8.7020646551244935e-03 4.2346685957495402e-04 0.0000000000000000e+00  -8.8544800278186741e-03 5.9329838469913421e-05 0.0000000000000000e+00  -8.7761115083591235e-03 -3.1116900135581870e-04 0.0000000000000000e+00  -8.4656185669032945e-03 -6.7949110595880407e-04 0.0000000000000000e+00  -7.9270515055384853e-03 -1.0363844485287265e-03 0.0000000000000000e+00  -7.1703469836262154e-03 -1.3718734588541641e-03 0.0000000000000000e+00  -6.2117826813447860e-03 -1.6754448150939258e-03 0.0000000000000000e+00  -5.0746105621342283e-03 -1.9365183694831176e-03 0.0000000000000000e+00  -3.7877150278426783e-03 -2.1445536560814969e-03 0.0000000000000000e+00  -2.3919274658546238e-03 -2.2782291080196671e-03 0.0000000000000000e+00  -9.3832911313678977e-04 -2.2238771638221052e-03 0.0000000000000000e+00  0.0000000000000000e+00 0.0000000000000000e+00 0.0000000000000000e+00  0.0000000000000000e+00 0.0000000000000000e+00 0.0000000000000000e+00  -9.4358231011141072e-04 3.5097095029368000e-03 0.0000000000000000e+00  -2.4072313118327308e-03 3.5804014794534340e-03 0.0000000000000000e+00  -3.8203397486828061e-03 3.3898031437934201e-03 0.0000000000000000e+00  -5.1367205948381310e-03 3.1030854444241808e-03 0.0000000000000000e+00  -6.3198865216067650e-03 2.7379308529110152e-03 0.0000000000000000e+00  -7.3408456492736135e-03 2.3039253684187227e-03 0.0000000000000000e+00  -8.1745430030111099e-03 1.8117283523790021e-03 0.0000000000000000e+00  -8.8005053543215323e-03 1.2725917825069954e-03 0.0000000000000000e+00  -9.2027615979786755e-03 6.9814300548192896e-04 0.0000000000000000e+00  -9.3697978545403196e-03 1.0042188866972610e-04 0.0000000000000000e+00  -9.2946167412042667e-03 -5.0790064593192908e-04 0.0000000000000000e+00  -8.9749920081651866e-03 -1.1132014831813045e-03 0.0000000000000000e+00  -8.4139635248050241e-03 -1.7006121384766826e-03 0.0000000000000000e+00  -7.6205417995878445e-03 -2.2539058960761174e-03 0.0000000000000000e+00  -6.6104782700468229e-03 -2.7557250141810028e-03 0.0000000000000000e+00  -5.4072063336878156e-03 -3.1883123402381844e-03 0.0000000000000000e+00  -4.0406483683578590e-03 -3.5336929856571372e-03 0.0000000000000000e+00  -2.5549854206258979e-03 -3.7594926618730530e-03 0.0000000000000000e+00  -1.0017564380236004e-03 -3.6798180522588445e-03 0.0000000000000000e+00  0.0000000000000000e+00 0.0000000000000000e+00 0.0000000000000000e+00  0.0000000000000000e+00 0.0000000000000000e+00 0.0000000000000000e+00  -1.0173424137040487e-03 4.9811086111677481e-03 0.0000000000000000e+00  -2.5939981820055865e-03 5.0823884532256404e-03 0.0000000000000000e+00  -4.1159564875009212e-03 4.8117021650075963e-03 0.0000000000000000e+00  -5.5324043397427525e-03 4.4035877559257591e-03 0.0000000000000000e+00  -6.8044802397570440e-03 3.8845284803990113e-03 0.0000000000000000e+00  -7.9018193849284546e-03 3.2688744550530787e-03 0.0000000000000000e+00  -8.7985562801019893e-03 2.5719948092132613e-03 0.0000000000000000e+00  -9.4738332767729597e-03 1.8097803428855715e-03 0.0000000000000000e+00  -9.9113816747009500e-03 9.9830907041334612e-04 0.0000000000000000e+00  -1.0099194451476584e-02 1.5393877344799291e-04 0.0000000000000000e+00  -1.0029371153758780e-02 -7.0626635780701122e-04 0.0000000000000000e+00  -9.6983006020884173e-03 -1.5639070540774437e-03 0.0000000000000000e+00  -9.1072731352161845e-03 -2.3986228058013965e-03 0.0000000000000000e+00  -8.2635129176170507e-03 -3.1877189311288598e-03 0.0000000000000000e+00  -7.1814518025162749e-03 -3.9063213410167599e-03 0.0000000000000000e+00  -5.8843421023157521e-03 -4.5283456504310272e-03 0.0000000000000000e+00  -4.4033569457040478e-03 -5.0271160709343468e-03 0.0000000000000000e+00  -2.7868980523386697e-03 -5.3564464153586788e-03 0.0000000000000000e+00  -1.0924790316993282e-03 -5.2522244980049192e-03 0.0000000000000000e+00  0.0000000000000000e+00 0.0000000000000000e+00 0.0000000000000000e+00  0.0000000000000000e+00 0.0000000000000000e+00 0.0000000000000000e+00  -1.1184924769406489e-03 6.5839247102144512e-03 0.0000000000000000e+00  -2.8504336965268972e-03 6.7164794835262434e-03 0.0000000000000000e+00  -4.5208508179809155e-03 6.3566726017804612e-03 0.0000000000000000e+00  -6.0728396487710126e-03 5.8147488597891529e-03 0.0000000000000000e+00  -7.4645748181266592e-03 5.1274091132106556e-03 0.0000000000000000e+00  -8.6639403606616344e-03 4.3146116479940901e-03 0.0000000000000000e+00  -9.6444208172704066e-03 3.3971309037695990e-03 0.0000000000000000e+00  -1.0385121802287190e-02 2.3958103467603782e-03 0.0000000000000000e+00  -1.0869850141520164e-02 1.3310800863313322e-03 0.0000000000000000e+00  -1.1086291835201396e-02 2.2316486753432403e-04 0.0000000000000000e+00  -1.1025479441861784e-02 -9.0714277221101301e-04 0.0000000000000000e+00  -1.0681807234609857e-02 -2.0373381655744080e-03 0.0000000000000000e+00  -1.0053765151297552e-02 -3.1419847923824414e-03 0.0000000000000000e+00  -9.1454368392035416e-03 -4.1918050372608852e-03 0.0000000000000000e+00  -7.9685711461687462e-03 -5.1535383065967463e-03 0.0000000000000000e+00  -6.5453117787031079e-03 -5.9910816650226104e-03 0.0000000000000000e+00  -4.9079594756767314e-03 -6.6665956141820125e-03 0.0000000000000000e+00  -3.1108533901972571e-03 -7.1166812052428190e-03 0.0000000000000000e+00  -1.2196622216308793e-03 -6.9889008223534320e-03 0.0000000000000000e+00  0.0000000000000000e+00 0.0000000000000000e+00 0.0000000000000000e+00  0.0000000000000000e+00 0.0000000000000000e+00 0.0000000000000000e+00  -1.2506859257804576e-03 8.3612664050504021e-03 0.0000000000000000e+00  -3.1852829706751264e-03 8.5263450461151250e-03 0.0000000000000000e+00  -5.0480410376546134e-03 8.0648319191860655e-03 0.0000000000000000e+00  -6.7742386385902043e-03 7.3716967606272370e-03 0.0000000000000000e+00  -8.3181457283105827e-03 6.4960883840728730e-03 0.0000000000000000e+00  -9.6458953241341881e-03 5.4651518664628872e-03 0.0000000000000000e+00  -1.0730883841183316e-02 4.3061445255268716e-03 0.0000000000000000e+00  -1.1553062179455476e-02 3.0453129855600967e-03 0.0000000000000000e+00  -1.2097192580933641e-02 1.7072204661918503e-03 0.0000000000000000e+00  -1.2351228762630449e-02 3.1515576735206260e-04 0.0000000000000000e+00  -1.2305150688087858e-02 -1.1075534077512514e-03 0.0000000000000000e+00  -1.1950634389662715e-02 -2.5355811792787284e-03 0.0000000000000000e+00  -1.1281852632327746e-02 -3.9393941303418672e-03 0.0000000000000000e+00  -1.0297572995236988e-02 -5.2833452901529391e-03 0.0000000000000000e+00  -9.0044148698327914e-03 -6.5248004185646767e-03 0.0000000000000000e+00  -7.4213875802821554e-03 -7.6152041497326815e-03 0.0000000000000000e+00  -5.5810287296619750e-03 -8.5017676926325142e-03 0.0000000000000000e+00  -3.5450750871207147e-03 -9.0984830068884127e-03 0.0000000000000000e+00  -1.3909140515171096e-03 -8.9495766752077585e-03 0.0000000000000000e+00  0.0000000000000000e+00 0.0000000000000000e+00 0.0000000000000000e+00  0.0000000000000000e+00 0.0000000000000000e+00 0.0000000000000000e+00  -1.4191356743064470e-03 1.0363425521529995e-02 0.0000000000000000e+00  -3.6112112230063955e-03 1.0561317376650942e-02 0.0000000000000000e+00  -5.7161419128347662e-03 9.9799641606598752e-03 0.0000000000000000e+00  -7.6589905097388666e-03 9.1112830451190868e-03 0.0000000000000000e+00  -9.3892365797526248e-03 8.0202361436071991e-03 0.0000000000000000e+00  -1.0871688323880158e-02 6.7435782656346602e-03 0.0000000000000000e+00  -1.2080952418565872e-02 5.3166913587633317e-03 0.0000000000000000e+00  -1.2999561714145576e-02 3.7718528897797833e-03 0.0000000000000000e+00  -1.3614932832953066e-02 2.1373337928884059e-03 0.0000000000000000e+00  -1.3916514205954911e-02 4.3813269178861498e-04 0.0000000000000000e+00  -1.3893613557881790e-02 -1.3019120927370040e-03 0.0000000000000000e+00  -1.3534419426826493e-02 -3.0569540880453884e-03 0.0000000000000000e+00  -1.2826684887282714e-02 -4.7953807644947341e-03 0.0000000000000000e+00  -1.1760479085129007e-02 -6.4761804457408268e-03 0.0000000000000000e+00  -1.0333084601972966e-02 -8.0465264298507748e-03 0.0000000000000000e+00  -8.5563862659688364e-03 -9.4421502377455644e-03 0.0000000000000000e+00  -6.4606510044734481e-03 -1.0589531699968187e-02 0.0000000000000000e+00  -4.1162551358027545e-03 -1.1371487285837365e-02 0.0000000000000000e+00  -1.6171576526777050e-03 -1.1207761931816352e-02 0.0000000000000000e+00  0.0000000000000000e+00 0.0000000000000000e+00 0.0000000000000000e+00  0.0000000000000000e+00 0.0000000000000000e+00 0.0000000000000000e+00  -1.6314318437681860e-03 1.2649903456341923e-02 0.0000000000000000e+00  -4.1464948609533933e-03 1.2878814973878289e-02 0.0000000000000000e+00  -6.5514790038764033e-03 1.2151559715685382e-02 0.0000000000000000e+00  -8.7579918723733434e-03 1.1073275869086576e-02 0.0000000000000000e+00  -1.0709934830213871e-02 9.7299374273047082e-03 0.0000000000000000e+00  -1.2371996303555580e-02 8.1716962142366692e-03 0.0000000000000000e+00  -1.3722495145391126e-02 6.4445056012504979e-03 0.0000000000000000e+00  -1.4749621276800727e-02 4.5875099085672128e-03 0.0000000000000000e+00  -1.5446400834598880e-02 2.6319234876373298e-03 0.0000000000000000e+00  -1.5806032040770669e-02 6.0229170518554518e-04 0.0000000000000000e+00  -1.5818205906687741e-02 -1.4802806933934508e-03 0.0000000000000000e+00  -1.5467009118553039e-02 -3.5932966452515550e-03 0.0000000000000000e+00  -1.4731062588732906e-02 -5.7068599938029556e-03 0.0000000000000000e+00  -1.3586721028882247e-02 -7.7772439897129692e-03 0.0000000000000000e+00  -1.2014958799620421e-02 -9.7414863823085830e-03 0.0000000000000000e+00  -1.0013051471546200e-02 -1.1515611343147063e-02 0.0000000000000000e+00  -7.6032580375350271e-03 -1.2996637020061739e-02 0.0000000000000000e+00  -4.8648619716973075e-03 -1.4022424729582681e-02 0.0000000000000000e+00  -1.9151421684010942e-03 -1.3857204957726292e-02 0.0000000000000000e+00  0.0000000000000000e+00 0.0000000000000000e+00 0.0000000000000000e+00  0.0000000000000000e+00 0.0000000000000000e+00 0.0000000000000000e+00  -1.8988487663473418e-03 1.5293781152231794e-02 0.0000000000000000e+00  -4.8178366404885552e-03 1.5547710977582532e-02 0.0000000000000000e+00  -7.5916912397417996e-03 1.4636349021168643e-02 0.0000000000000000e+00  -1.0114123947097459e-02 1.3300091405910146e-02 0.0000000000000000e+00  -1.2323006243757685e-02 1.1654038035495992e-02 0.0000000000000000e+00  -1.4185538608674782e-02 9.7675723490716227e-03 0.0000000000000000e+00  -1.5688227714420043e-02 7.7007516954591014e-03 0.0000000000000000e+00  -1.6830034904447237e-02 5.5005960702238718e-03 0.0000000000000000e+00  -1.7614381932472931e-02 3.1999439259376263e-03 0.0000000000000000e+00  -1.8041988232229182e-02 8.1959919010626760e-04 0.0000000000000000e+00  -1.8105126106730984e-02 -1.6269645083141885e-03 0.0000000000000000e+00  -1.7783763861542776e-02 -4.1267065136651095e-03 0.0000000000000000e+00  -1.7044355539349344e-02 -6.6580967006886092e-03 0.0000000000000000e+00  -1.5842630924390672e-02 -9.1805149821956103e-03 0.0000000000000000e+00  -1.4132129860604798e-02 -1.1623362837608118e-02 0.0000000000000000e+00  -1.1881894494806870e-02 -1.3878943694819750e-02 0.0000000000000000e+00  -9.0939165983828577e-03 -1.5802025281945329e-02 0.0000000000000000e+00  -5.8537188961755235e-03 -1.7162973635009900e-02 0.0000000000000000e+00  -2.3112851216770865e-03 -1.7023316469649823e-02 0.0000000000000000e+00  0.0000000000000000e+00 0.0000000000000000e+00 0.0000000000000000e+00  0.0000000000000000e+00 0.0000000000000000e+00 0.0000000000000000e+00  -2.2385770161725388e-03 1.8388344533712332e-02 0.0000000000000000e+00  -5.6651956725701494e-03 1.8653153250489270e-02 0.0000000000000000e+00  -8.8917099974254645e-03 1.7500258553385824e-02 0.0000000000000000e+00  -1.1787818480074182e-02 1.5835929792048939e-02 0.0000000000000000e+00  -1.4285924635530365e-02 1.3817188829080305e-02 0.0000000000000000e+00  -1.6361047291432416e-02 1.1541501333594505e-02 0.0000000000000000e+00  -1.8015594276397002e-02 9.0878534601771359e-03 0.0000000000000000e+00  -1.9267423942836873e-02 6.5120695014033838e-03 0.0000000000000000e+00  -2.0137629537474507e-02 3.8463457197271743e-03 0.0000000000000000e+00  -2.0640256469172582e-02 1.1029787794320000e-03 0.0000000000000000e+00  -2.0774094926718219e-02 -1.7190794377819284e-03 0.0000000000000000e+00  -2.0516442277053969e-02 -4.6252243987617344e-03 0.0000000000000000e+00  -1.9819259456368969e-02 -7.6131769956428738e-03 0.0000000000000000e+00  -1.8609145001381559e-02 -1.0656789711603030e-02 0.0000000000000000e+00  -1.6795385787016528e-02 -1.3685827777076344e-02 0.0000000000000000e+00  -1.4295168573314023e-02 -1.6567760671932007e-02 0.0000000000000000e+00  -1.1064697928973430e-02 -1.9098515091665179e-02 0.0000000000000000e+00  -7.1842105858676043e-03 -2.0943086710008350e-02 0.0000000000000000e+00  -2.8486770096207087e-03 -2.0883014644393176e-02 0.0000000000000000e+00  0.0000000000000000e+00 0.0000000000000000e+00 0.0000000000000000e+00  0.0000000000000000e+00 0.0000000000000000e+00 0.0000000000000000e+00  -2.6777461615725227e-03 2.2057819808121191e-02 0.0000000000000000e+00  -6.7501925415323063e-03 2.2303848051615057e-02 0.0000000000000000e+00  -1.0533714502656258e-02 2.0820613799792647e-02 0.0000000000000000e+00  -1.3865828494855006e-02 1.8724307968546159e-02 0.0000000000000000e+00  -1.6676754816047610e-02 1.6234328145944086e-02 0.0000000000000000e+00  -1.8959767267258662e-02 1.3489265795337390e-02 0.0000000000000000e+00  -2.0746206467871949e-02 1.0592932182510803e-02 0.0000000000000000e+00  -2.2085204554452870e-02 7.6099836882159199e-03 0.0000000000000000e+00  -2.3025834801373272e-02 4.5680099341466190e-03 0.0000000000000000e+00  -2.3603589330572598e-02 1.4642105732653760e-03 0.0000000000000000e+00  -2.3830051694548302e-02 -1.7259051075876873e-03 0.0000000000000000e+00  -2.3684238658264471e-02 -5.0382299616902639e-03 0.0000000000000000e+00  -2.3103968265408035e-02 -8.5057003838081534e-03 0.0000000000000000e+00  -2.1978156824009588e-02 -1.2136035832665346e-02 0.0000000000000000e+00  -2.0151251888331195e-02 -1.5880034235819990e-02 0.0000000000000000e+00  -1.7450347647955250e-02 -1.9593549572102836e-02 0.0000000000000000e+00  -1.3729588612696375e-02 -2.2995926478915480e-02 0.0000000000000000e+00  -9.0264810427620468e-03 -2.5575069889108983e-02 0.0000000000000000e+00  -3.5971690664802270e-03 -2.5695191844827475e-02 0.0000000000000000e+00  0.0000000000000000e+00 0.0000000000000000e+00 0.0000000000000000e+00  0.0000000000000000e+00 0.0000000000000000e+00 0.0000000000000000e+00  -3.2609947228044080e-03 2.6475136967884047e-02 0.0000000000000000e+00  -8.1711798457560093e-03 2.6643271944628490e-02 0.0000000000000000e+00  -1.2644003520132589e-02 2.4687981118575647e-02 0.0000000000000000e+00  -1.6474956295577683e-02 2.2002183064559880e-02 0.0000000000000000e+00  -1.9602306948667124e-02 1.8900674975727338e-02 0.0000000000000000e+00  -2.2058068376973324e-02 1.5581279608485318e-02 0.0000000000000000e+00  -2.3924187089995511e-02 1.2178074917806323e-02 0.0000000000000000e+00  -2.5298996901826441e-02 8.7615811015755007e-03 0.0000000000000000e+00  -2.6272824435951851e-02 5.3476846052666113e-03 0.0000000000000000e+00  -2.6912605589298637e-02 1.9097201370336890e-03 0.0000000000000000e+00  -2.7251547270744320e-02 -1.6105597350658965e-03 0.0000000000000000e+00  -2.7278794721317702e-02 -5.2928273870657327e-03 0.0000000000000000e+00  -2.6923026558663438e-02 -9.2238841645239655e-03 0.0000000000000000e+00  -2.6038425765929560e-02 -1.3478235624038258e-02 0.0000000000000000e+00  -2.4392988339227688e-02 -1.8083338026214393e-02 0.0000000000000000e+00  -2.1649845500058842e-02 -2.2927702603583532e-02 0.0000000000000000e+00  -1.7438650897500681e-02 -2.7615563124919130e-02 0.0000000000000000e+00  -1.1673571928388601e-02 -3.1338574149591535e-02 0.0000000000000000e+00  -4.6881312071335281e-03 -3.1840665848228686e-02 0.0000000000000000e+00  0.0000000000000000e+00 0.0000000000000000e+00 0.0000000000000000e+00  0.0000000000000000e+00 0.0000000000000000e+00 0.0000000000000000e+00  -4.0653976540634277e-03 3.1892918337277053e-02 0.0000000000000000e+00  -1.0091131889895279e-02 3.1867209341196523e-02 0.0000000000000000e+00  -1.5422121058260289e-02 2.9205370201350268e-02 0.0000000000000000e+00  -1.9803073667002777e-02 2.5686726600023295e-02 0.0000000000000000e+00  -2.3208268419412429e-02 2.1773758926766810e-02 0.0000000000000000e+00  -2.5748651701399949