<?xml version="1.0"?>
<VTKFile type="UnstructuredGrid"  version="0.1"  >
<UnstructuredGrid>
<Piece  NumberOfPoints="441" NumberOfCells="800">
<Points>
<DataArray  type="Float64"  NumberOfComponents="3"  format="ascii">0 0 0  0.05 0 0  0.1 0 0  0.15 0 0  0.2 0 0  0.25 0 0  0.3 0 0  0.35 0 0  0.4 0 0  0.45 0 0  0.5 0 0  0.55 0 0  0.6 0 0  0.65 0 0  0.7 0 0  0.75 0 0  0.8 0 0  0.85 0 0  0.9 0 0  0.95 0 0  1 0 0  0 0.05 0  0.05 0.05 0  0.1 0.05 0  0.15 0.05 0  0.2 0.05 0  0.25 0.05 0  0.3 0.05 0  0.35 0.05 0  0.4 0.05 0  0.45 0.05 0  0.5 0.05 0  0.55 0.05 0  0.6 0.05 0  0.65 0.05 0  0.7 0.05 0  0.75 0.05 0  0.8 0.05 0  0.85 0.05 0  0.9 0.05 0  0.95 0.05 0  1 0.05 0  0 0.1 0  0.05 0.1 0  0.1 0.1 0  0.15 0.1 0  0.2 0.1 0  0.25 0.1 0  0.3 0.1 0  0.35 0.1 0  0.4 0.1 0  0.45 0.1 0  0.5 0.1 0  0.55 0.1 0  0.6 0.1 0  0.65 0.1 0  0.7 0.1 0  0.75 0.1 0  0.8 0.1 0  0.85 0.1 0  0.9 0.1 0  0.95 0.1 0  1 0.1 0  0 0.15 0  0.05 0.15 0  0.1 0.15 0  0.15 0.15 0  0.2 0.15 0  0.25 0.15 0  0.3 0.15 0  0.35 0.15 0  0.4 0.15 0  0.45 0.15 0  0.5 0.15 0  0.55 0.15 0  0.6 0.15 0  0.65 0.15 0  0.7 0.15 0  0.75 0.15 0  0.8 0.15 0  0.85 0.15 0  0.9 0.15 0  0.95 0.15 0  1 0.15 0  0 0.2 0  0.05 0.2 0  0.1 0.2 0  0.15 0.2 0  0.2 0.2 0  0.25 0.2 0  0.3 0.2 0  0.35 0.2 0  0.4 0.2 0  0.45 0.2 0  0.5 0.2 0  0.55 0.2 0  0.6 0.2 0  0.65 0.2 0  0.7 0.2 0  0.75 0.2 0  0.8 0.2 0  0.85 0.2 0  0.9 0.2 0  0.95 0.2 0  1 0.2 0  0 0.25 0  0.05 0.25 0  0.1 0.25 0  0.15 0.25 0  0.2 0.25 0  0.25 0.25 0  0.3 0.25 0  0.35 0.25 0  0.4 0.25 0  0.45 0.25 0  0.5 0.25 0  0.55 0.25 0  0.6 0.25 0  0.65 0.25 0  0.7 0.25 0  0.75 0.25 0  0.8 0.25 0  0.85 0.25 0  0.9 0.25 0  0.95 0.25 0  1 0.25 0  0 0.3 0  0.05 0.3 0  0.1 0.3 0  0.15 0.3 0  0.2 0.3 0  0.25 0.3 0  0.3 0.3 0  0.35 0.3 0  0.4 0.3 0  0.45 0.3 0  0.5 0.3 0  0.55 0.3 0  0.6 0.3 0  0.65 0.3 0  0.7 0.3 0  0.75 0.3 0  0.8 0.3 0  0.85 0.3 0  0.9 0.3 0  0.95 0.3 0  1 0.3 0  0 0.35 0  0.05 0.35 0  0.1 0.35 0  0.15 0.35 0  0.2 0.35 0  0.25 0.35 0  0.3 0.35 0  0.35 0.35 0  0.4 0.35 0  0.45 0.35 0  0.5 0.35 0  0.55 0.35 0  0.6 0.35 0  0.65 0.35 0  0.7 0.35 0  0.75 0.35 0  0.8 0.35 0  0.85 0.35 0  0.9 0.35 0  0.95 0.35 0  1 0.35 0  0 0.4 0  0.05 0.4 0  0.1 0.4 0  0.15 0.4 0  0.2 0.4 0  0.25 0.4 0  0.3 0.4 0  0.35 0.4 0  0.4 0.4 0  0.45 0.4 0  0.5 0.4 0  0.55 0.4 0  0.6 0.4 0  0.65 0.4 0  0.7 0.4 0  0.75 0.4 0  0.8 0.4 0  0.85 0.4 0  0.9 0.4 0  0.95 0.4 0  1 0.4 0  0 0.45 0  0.05 0.45 0  0.1 0.45 0  0.15 0.45 0  0.2 0.45 0  0.25 0.45 0  0.3 0.45 0  0.35 0.45 0  0.4 0.45 0  0.45 0.45 0  0.5 0.45 0  0.55 0.45 0  0.6 0.45 0  0.65 0.45 0  0.7 0.45 0  0.75 0.45 0  0.8 0.45 0  0.85 0.45 0  0.9 0.45 0  0.95 0.45 0  1 0.45 0  0 0.5 0  0.05 0.5 0  0.1 0.5 0  0.15 0.5 0  0.2 0.5 0  0.25 0.5 0  0.3 0.5 0  0.35 0.5 0  0.4 0.5 0  0.45 0.5 0  0.5 0.5 0  0.55 0.5 0  0.6 0.5 0  0.65 0.5 0  0.7 0.5 0  0.75 0.5 0  0.8 0.5 0  0.85 0.5 0  0.9 0.5 0  0.95 0.5 0  1 0.5 0  0 0.55 0  0.05 0.55 0  0.1 0.55 0  0.15 0.55 0  0.2 0.55 0  0.25 0.55 0  0.3 0.55 0  0.35 0.55 0  0.4 0.55 0  0.45 0.55 0  0.5 0.55 0  0.55 0.55 0  0.6 0.55 0  0.65 0.55 0  0.7 0.55 0  0.75 0.55 0  0.8 0.55 0  0.85 0.55 0  0.9 0.55 0  0.95 0.55 0  1 0.55 0  0 0.6 0  0.05 0.6 0  0.1 0.6 0  0.15 0.6 0  0.2 0.6 0  0.25 0.6 0  0.3 0.6 0  0.35 0.6 0  0.4 0.6 0  0.45 0.6 0  0.5 0.6 0  0.55 0.6 0  0.6 0.6 0  0.65 0.6 0  0.7 0.6 0  0.75 0.6 0  0.8 0.6 0  0.85 0.6 0  0.9 0.6 0  0.95 0.6 0  1 0.6 0  0 0.65 0  0.05 0.65 0  0.1 0.65 0  0.15 0.65 0  0.2 0.65 0  0.25 0.65 0  0.3 0.65 0  0.35 0.65 0  0.4 0.65 0  0.45 0.65 0  0.5 0.65 0  0.55 0.65 0  0.6 0.65 0  0.65 0.65 0  0.7 0.65 0  0.75 0.65 0  0.8 0.65 0  0.85 0.65 0  0.9 0.65 0  0.95 0.65 0  1 0.65 0  0 0.7 0  0.05 0.7 0  0.1 0.7 0  0.15 0.7 0  0.2 0.7 0  0.25 0.7 0  0.3 0.7 0  0.35 0.7 0  0.4 0.7 0  0.45 0.7 0  0.5 0.7 0  0.55 0.7 0  0.6 0.7 0  0.65 0.7 0  0.7 0.7 0  0.75 0.7 0  0.8 0.7 0  0.85 0.7 0  0.9 0.7 0  0.95 0.7 0  1 0.7 0  0 0.75 0  0.05 0.75 0  0.1 0.75 0  0.15 0.75 0  0.2 0.75 0  0.25 0.75 0  0.3 0.75 0  0.35 0.75 0  0.4 0.75 0  0.45 0.75 0  0.5 0.75 0  0.55 0.75 0  0.6 0.75 0  0.65 0.75 0  0.7 0.75 0  0.75 0.75 0  0.8 0.75 0  0.85 0.75 0  0.9 0.75 0  0.95 0.75 0  1 0.75 0  0 0.8 0  0.05 0.8 0  0.1 0.8 0  0.15 0.8 0  0.2 0.8 0  0.25 0.8 0  0.3 0.8 0  0.35 0.8 0  0.4 0.8 0  0.45 0.8 0  0.5 0.8 0  0.55 0.8 0  0.6 0.8 0  0.65 0.8 0  0.7 0.8 0  0.75 0.8 0  0.8 0.8 0  0.85 0.8 0  0.9 0.8 0  0.95 0.8 0  1 0.8 0  0 0.85 0  0.05 0.85 0  0.1 0.85 0  0.15 0.85 0  0.2 0.85 0  0.25 0.85 0  0.3 0.85 0  0.35 0.85 0  0.4 0.85 0  0.45 0.85 0  0.5 0.85 0  0.55 0.85 0  0.6 0.85 0  0.65 0.85 0  0.7 0.85 0  0.75 0.85 0  0.8 0.85 0  0.85 0.85 0  0.9 0.85 0  0.95 0.85 0  1 0.85 0  0 0.9 0  0.05 0.9 0  0.1 0.9 0  0.15 0.9 0  0.2 0.9 0  0.25 0.9 0  0.3 0.9 0  0.35 0.9 0  0.4 0.9 0  0.45 0.9 0  0.5 0.9 0  0.55 0.9 0  0.6 0.9 0  0.65 0.9 0  0.7 0.9 0  0.75 0.9 0  0.8 0.9 0  0.85 0.9 0  0.9 0.9 0  0.95 0.9 0  1 0.9 0  0 0.95 0  0.05 0.95 0  0.1 0.95 0  0.15 0.95 0  0.2 0.95 0  0.25 0.95 0  0.3 0.95 0  0.35 0.95 0  0.4 0.95 0  0.45 0.95 0  0.5 0.95 0  0.55 0.95 0  0.6 0.95 0  0.65 0.95 0  0.7 0.95 0  0.75 0.95 0  0.8 0.95 0  0.85 0.95 0  0.9 0.95 0  0.95 0.95 0  1 0.95 0  0 1 0  0.05 1 0  0.1 1 0  0.15 1 0  0.2 1 0  0.25 1 0  0.3 1 0  0.35 1 0  0.4 1 0  0.45 1 0  0.5 1 0  0.55 1 0  0.6 1 0  0.65 1 0  0.7 1 0  0.75 1 0  0.8 1 0  0.85 1 0  0.9 1 0  0.95 1 0  1 1 0  </DataArray>
</Points>
<Cells>
[...]
<PointData  Vectors="f_137"> 
<DataArray  type="Float64"  Name="f_137"  NumberOfComponents="3" format="ascii">0.0000000000000000e+00 0.0000000000000000e+00 0.0000000000000000e+00  0.0000000000000000e+00 0.0000000000000000e+00 0.0000000000000000e+00  0.0000000000000000e+00 0.0000000000000000e+00 0.0000000000000000e+00  0.0000000000000000e+00 0.0000000000000000e+00 0.0000000000000000e+00  0.0000000000000000e+00 0.0000000000000000e+00 0.0000000000000000e+00  0.0000000000000000e+00 0.0000000000000000e+00 0.0000000000000000e+00  0.0000000000000000e+00 0.0000000000000000e+00 0.0000000000000000e+00  0.0000000000000000e+00 0.0000000000000000e+00 0.0000000000000000e+00  0.0000000000000000e+00 0.0000000000000000e+00 0.0000000000000000e+00  0.0000000000000000e+00 0.0000000000000000e+00 0.0000000000000000e+00  0.0000000000000000e+00 0.0000000000000000e+00 0.0000000000000000e+00  0.0000000000000000e+00 0.0000000000000000e+00 0.0000000000000000e+00  0.0000000000000000e+00 0.0000000000000000e+00 0.0000000000000000e+00  0.0000000000000000e+00 0.0000000000000000e+00 0.0000000000000000e+00  0.0000000000000000e+00 0.0000000000000000e+00 0.0000000000000000e+00  0.0000000000000000e+00 0.0000000000000000e+00 0.0000000000000000e+00  0.0000000000000000e+00 0.0000000000000000e+00 0.0000000000000000e+00  0.0000000000000000e+00 0.0000000000000000e+00 0.0000000000000000e+00  0.0000000000000000e+00 0.0000000000000000e+00 0.0000000000000000e+00  0.0000000000000000e+00 0.0000000000000000e+00 0.0000000000000000e+00  0.0000000000000000e+00 0.0000000000000000e+00 0.0000000000000000e+00  0.0000000000000000e+00 0.0000000000000000e+00 0.0000000000000000e+00  -8.2763051989114163e-04 8.1931357066616483e-04 0.0000000000000000e+00  -2.1271194991742356e-03 8.4544161601850720e-04 0.0000000000000000e+00  -3.3854796579852464e-03 7.9765623208644879e-04 0.0000000000000000e+00  -4.5558515751070311e-03 7.3107282726472117e-04 0.0000000000000000e+00  -5.6095368742055882e-03 6.4586867114330843e-04 0.0000000000000000e+00  -6.5191748130483517e-03 5.4418930415824117e-04 0.0000000000000000e+00  -7.2616847850500215e-03 4.2838640776922073e-04 0.0000000000000000e+00  -7.8178131628055189e-03 3.0101480359892536e-04 0.0000000000000000e+00  -8.1724775639136354e-03 1.6481375334470897e-04 0.0000000000000000e+00  -8.3149831812292241e-03 2.2704614623507679e-05 0.0000000000000000e+00  -8.2392594379915134e-03 -1.2216958410733050e-04 0.0000000000000000e+00  -7.9441677053563361e-03 -2.6639223246126352e-04 0.0000000000000000e+00  -7.4338803188611037e-03 -4.0623704713771029e-04 0.0000000000000000e+00  -6.7182977925970876e-03 -5.3767966633594649e-04 0.0000000000000000e+00  -5.8133794851712777e-03 -6.5648966187133618e-04 0.0000000000000000e+00  -4.7413066707006866e-03 -7.5849102687327815e-04 0.0000000000000000e+00  -3.5302581021416646e-03 -8.3926971859784954e-04 0.0000000000000000e+00  -2.2188062636639351e-03 -8.9014792342441515e-04 0.0000000000000000e+00  -8.4858247076185372e-04 -8.4659496439038482e-04 0.0000000000000000e+00  0.0000000000000000e+00 0.0000000000000000e+00 0.0000000000000000e+00  0.0000000000000000e+00 0.0000000000000000e+00 0.0000000000000000e+00  -9.0539464092093569e-04 2.1510965440205473e-03 0.0000000000000000e+00  -2.3147483459130952e-03 2.2090014231911700e-03 0.0000000000000000e+00  -3.6792006275902255e-03 2.0920887012069395e-03 0.0000000000000000e+00  -4.9510919241192728e-03 1.9167304711295210e-03 0.0000000000000000e+00  -6.0952551327042356e-03 1.6928361604274156e-03 0.0000000000000000e+00  -7.0829734579468369e-03 1.4260482299428365e-03 0.0000000000000000e+00  -7.8894484249118317e-03 1.1227152963549890e-03 0.0000000000000000e+00  -8.4941436260066987e-03 7.8968647800129951e-04 0.0000000000000000e+00  -8.8810087713546391e-03 4.3417490111483526e-04 0.0000000000000000e+00  -9.0385953504094913e-03 6.3767969887483085e-05 0.0000000000000000e+00  -8.9602460226700324e-03 -3.1346329667888794e-04 0.0000000000000000e+00  -8.6443991012480608e-03 -6.8880984555347183e-04 0.0000000000000000e+00  -8.0950253952419265e-03 -1.0527998942470303e-03 0.0000000000000000e+00  -7.3221565009984110e-03 -1.3951896455546497e-03 0.0000000000000000e+00  -6.3423613604461524e-03 -1.7051555262906147e-03 0.0000000000000000e+00  -5.1794348614605844e-03 -1.9717805761629991e-03 0.0000000000000000e+00  -3.8629992080674311e-03 -2.1842619593103680e-03 0.0000000000000000e+00  -2.4349649814587393e-03 -2.3202706715229351e-03 0.0000000000000000e+00  -9.5000178666826527e-04 -2.2541812049364355e-03 0.0000000000000000e+00  0.0000000000000000e+00 0.0000000000000000e+00 0.0000000000000000e+00  0.0000000000000000e+00 0.0000000000000000e+00 0.0000000000000000e+00  -9.5265439539821606e-04 3.5532113482014045e-03 0.0000000000000000e+00  -2.4441188056897774e-03 3.6442960338481608e-03 0.0000000000000000e+00  -3.8865010965614651e-03 3.4516386555920194e-03 0.0000000000000000e+00  -5.2307391488108871e-03 3.1611930114433802e-03 0.0000000000000000e+00  -6.4396025548621441e-03 2.7908641364745978e-03 0.0000000000000000e+00  -7.4834587446757613e-03 2.3502657967195886e-03 0.0000000000000000e+00  -8.3366310170288858e-03 1.8501217670096437e-03 0.0000000000000000e+00  -8.9780691940381310e-03 1.3017653644571822e-03 0.0000000000000000e+00  -9.3912731751688641e-03 7.1693996869777693e-04 0.0000000000000000e+00  -9.5642605846069945e-03 1.0784754519338891e-04 0.0000000000000000e+00  -9.4896442185025028e-03 -5.1261963987598821e-04 0.0000000000000000e+00  -9.1649121372384141e-03 -1.1305441533930932e-03 0.0000000000000000e+00  -8.5929565648115071e-03 -1.7306798228464951e-03 0.0000000000000000e+00  -7.7828202705326243e-03 -2.2963368163601548e-03 0.0000000000000000e+00  -6.7505024607308114e-03 -2.8096168183112617e-03 0.0000000000000000e+00  -5.5199711263360469e-03 -3.2521712261862523e-03 0.0000000000000000e+00  -4.1219072570167804e-03 -3.6055152547262432e-03 0.0000000000000000e+00  -2.6016410308182893e-03 -3.8357635634579008e-03 0.0000000000000000e+00  -1.0146831021255133e-03 -3.7369734277205168e-03 0.0000000000000000e+00  0.0000000000000000e+00 0.0000000000000000e+00 0.0000000000000000e+00  0.0000000000000000e+00 0.0000000000000000e+00 0.0000000000000000e+00  -1.0267232752728674e-03 5.0472522268750989e-03 0.0000000000000000e+00  -2.6328574509128363e-03 5.1767687033593499e-03 0.0000000000000000e+00  -4.1858923740292981e-03 4.9030864624229195e-03 0.0000000000000000e+00  -5.6319923109242531e-03 4.4894100504843625e-03 0.0000000000000000e+00  -6.9315188032185978e-03 3.9626770394017010e-03 0.0000000000000000e+00  -8.0534495898915339e-03 3.3372820896714118e-03 0.0000000000000000e+00  -8.9712694066097134e-03 2.6286941045405290e-03 0.0000000000000000e+00  -9.6635108982050019e-03 1.8529244103965762e-03 0.0000000000000000e+00  -1.0113330836793428e-02 1.0262142702554063e-03 0.0000000000000000e+00  -1.0308193172565096e-02 1.6514403898569137e-04 0.0000000000000000e+00  -1.0239728724264024e-02 -7.1291941117534660e-04 0.0000000000000000e+00  -9.9039436336558640e-03 -1.5891699296984813e-03 0.0000000000000000e+00  -9.3018716038448749e-03 -2.4427141909511012e-03 0.0000000000000000e+00  -8.4406622261368417e-03 -3.2501878261770125e-03 0.0000000000000000e+00  -7.3349097231158429e-03 -3.9859156780598830e-03 0.0000000000000000e+00  -6.0083703989578302e-03 -4.6229144950812205e-03 0.0000000000000000e+00  -4.4930051521218884e-03 -5.1337001352067613e-03 0.0000000000000000e+00  -2.8385012803716601e-03 -5.4699827541253706e-03 0.0000000000000000e+00  -1.1068515912673513e-03 -5.3387787611784768e-03 0.0000000000000000e+00  0.0000000000000000e+00 0.0000000000000000e+00 0.0000000000000000e+00  0.0000000000000000e+00 0.0000000000000000e+00 0.0000000000000000e+00  -1.1283322103636845e-03 6.6741695088629160e-03 0.0000000000000000e+00  -2.8920496676532468e-03 6.8435113882138725e-03 0.0000000000000000e+00  -4.5960623897417594e-03 6.4797575553936591e-03 0.0000000000000000e+00  -6.1801942175781048e-03 5.9303951410878122e-03 0.0000000000000000e+00  -7.6018121389548046e-03 5.2328211280508472e-03 0.0000000000000000e+00  -8.8281150309669834e-03 4.4070483335547648e-03 0.0000000000000000e+00  -9.8319062080520249e-03 3.4739790119805150e-03 0.0000000000000000e+00  -1.0591642550090281e-02 2.4546067285716260e-03 0.0000000000000000e+00  -1.1090503253263337e-02 1.3695565775541114e-03 0.0000000000000000e+00  -1.1315570359182996e-02 2.3931499290248483e-04 0.0000000000000000e+00  -1.1257303507221959e-02 -9.1496641645925328e-04 0.0000000000000000e+00  -1.0909577451499383e-02 -2.0702868017939730e-03 0.0000000000000000e+00  -1.0270461121336861e-02 -3.2005344619935928e-03 0.0000000000000000e+00  -9.3437902402296533e-03 -4.2755466431324872e-03 0.0000000000000000e+00  -8.1413245261679652e-03 -5.2609600871595585e-03 0.0000000000000000e+00  -6.6856369337471629e-03 -6.1193895457653108e-03 0.0000000000000000e+00  -5.0098391083529736e-03 -6.8117850951519062e-03 0.0000000000000000e+00  -3.1697589856466159e-03 -7.2718907694536627e-03 0.0000000000000000e+00  -1.2362516854029914e-03 -7.1085168650170706e-03 0.0000000000000000e+00  0.0000000000000000e+00 0.0000000000000000e+00 0.0000000000000000e+00  0.0000000000000000e+00 0.0000000000000000e+00 0.0000000000000000e+00  -1.2611224197516236e-03 8.4775252792024178e-03 0.0000000000000000e+00  -3.2304684323718560e-03 8.6888893950583732e-03 0.0000000000000000e+00  -5.1300566484294083e-03 8.2224877383661760e-03 0.0000000000000000e+00  -6.8916007396363759e-03 7.5199889818596682e-03 0.0000000000000000e+00  -8.4685178841285499e-03 6.6315053272308095e-03 0.0000000000000000e+00  -9.8262219656100585e-03 5.5842461361284975e-03 0.0000000000000000e+00  -1.0937396974537633e-02 4.4056226592637335e-03 0.0000000000000000e+00  -1.1781307392419567e-02 3.1220505005186178e-03 0.0000000000000000e+00  -1.2342035290629173e-02 1.7582997864773579e-03 0.0000000000000000e+00  -1.2606849082444726e-02 3.3792923494550895e-04 0.0000000000000000e+00  -1.2565030570028541e-02 -1.1153587406315111e-03 0.0000000000000000e+00  -1.2207555281261372e-02 -2.5756968867744422e-03 0.0000000000000000e+00  -1.1527937427335858e-02 -4.0127684084358501e-03 0.0000000000000000e+00  -1.0524423041591796e-02 -5.3898302381822022e-03 0.0000000000000000e+00  -9.2033776376865307e-03 -6.6627970567913527e-03 0.0000000000000000e+00  -7.5840734124054624e-03 -7.7813355702722525e-03 0.0000000000000000e+00  -5.6998436300810867e-03 -8.6908794269022621e-03 0.0000000000000000e+00  -3.6141763958465168e-03 -9.3015556850806758e-03 0.0000000000000000e+00  -1.4106503558431582e-03 -9.1075055358979581e-03 0.0000000000000000e+00  0.0000000000000000e+00 0.0000000000000000e+00 0.0000000000000000e+00  0.0000000000000000e+00 0.0000000000000000e+00 0.0000000000000000e+00  -1.4302758164616324e-03 1.0508116396363888e-02 0.0000000000000000e+00  -3.6607809257840499e-03 1.0762982766741537e-02 0.0000000000000000e+00  -5.8065419125207865e-03 1.0175796012303390e-02 0.0000000000000000e+00  -7.7886934159284741e-03 9.2957563866518256e-03 0.0000000000000000e+00  -9.5558061177613684e-03 8.1890890446544296e-03 0.0000000000000000e+00  -1.1071934627957877e-02 6.8926257303823877e-03 0.0000000000000000e+00  -1.2310946305535989e-02 5.4419294595516986e-03 0.0000000000000000e+00  -1.3254661557076147e-02 3.8694582707189213e-03 0.0000000000000000e+00  -1.3889778596850784e-02 2.2036799873194793e-03 0.0000000000000000e+00  -1.4204988720445911e-02 4.6982987997257322e-04 0.0000000000000000e+00  -1.4188768438557719e-02 -1.3079262332265115e-03 0.0000000000000000e+00  -1.3828383281835820e-02 -3.1032337565965085e-03 0.0000000000000000e+00  -1.3110598587842234e-02 -4.8836645836989497e-03 0.0000000000000000e+00  -1.2024539619198802e-02 -6.6069405947285021e-03 0.0000000000000000e+00  -1.0566778887904331e-02 -8.2183980209936443e-03 0.0000000000000000e+00  -8.7491177958696886e-03 -9.6513436205803351e-03 0.0000000000000000e+00  -6.6024943704523975e-03 -1.0829652889303534e-02 0.0000000000000000e+00  -4.1993589454743744e-03 -1.1630862925766934e-02 0.0000000000000000e+00  -1.6412796749947095e-03 -1.1411282510686113e-02 0.0000000000000000e+00  0.0000000000000000e+00 0.0000000000000000e+00 0.0000000000000000e+00  0.0000000000000000e+00 0.0000000000000000e+00 0.0000000000000000e+00  -1.6433413448295720e-03 1.2825953197839834e-02 0.0000000000000000e+00  -4.2012695358425957e-03 1.3123997084092591e-02 0.0000000000000000e+00  -6.6519004125054661e-03 1.2389958711483949e-02 0.0000000000000000e+00  -8.9024701532756847e-03 1.1298230039047286e-02 0.0000000000000000e+00  -1.0895901106319501e-02 9.9363938511834223e-03 0.0000000000000000e+00  -1.2596093283139377e-02 8.3547034476192956e-03 0.0000000000000000e+00  -1.3980610404163039e-02 6.5993320153643923e-03 0.0000000000000000e+00  -1.5036928620204403e-02 4.7096174798845116e-03 0.0000000000000000e+00  -1.5757353174569760e-02 2.7169425963866193e-03 0.0000000000000000e+00  -1.6134291268055899e-02 6.4600646070568874e-04 0.0000000000000000e+00  -1.6156492289683778e-02 -1.4818958794520834e-03 0.0000000000000000e+00  -1.5806876043597786e-02 -3.6439226222125328e-03 0.0000000000000000e+00  -1.5062644324543985e-02 -5.8094794315076614e-03 0.0000000000000000e+00  -1.3898576359610792e-02 -7.9335245141954457e-03 0.0000000000000000e+00  -1.2294164396996744e-02 -9.9508885007736792e-03 0.0000000000000000e+00  -1.0245906472570567e-02 -1.1774340726801807e-02 0.0000000000000000e+00  -7.7763460789569520e-03 -1.3297053604612672e-02 0.0000000000000000e+00  -4.9671943024747339e-03 -1.4349516619024793e-02 0.0000000000000000e+00  -1.9453739573112607e-03 -1.4116328259079023e-02 0.0000000000000000e+00  0.0000000000000000e+00 0.0000000000000000e+00 0.0000000000000000e+00  0.0000000000000000e+00 0.0000000000000000e+00 0.0000000000000000e+00  -1.9115389727619740e-03 1.5504641250473281e-02 0.0000000000000000e+00  -4.8786495267763540e-03 1.5841655072784212e-02 0.0000000000000000e+00  -7.7038506704467172e-03 1.4922546395531899e-02 0.0000000000000000e+00  -1.0275946618474530e-02 1.3570629835732028e-02 0.0000000000000000e+00  -1.2531739150574393e-02 1.1903026161525001e-02 0.0000000000000000e+00  -1.4437602920486339e-02 9.9892686854554710e-03 0.0000000000000000e+00  -1.5979289247932283e-02 7.8897020158211640e-03 0.0000000000000000e+00  -1.7155084359149964e-02 5.6515734328512297e-03 0.0000000000000000e+00  -1.7967752110029891e-02 3.3078580419819382e-03 0.0000000000000000e+00  -1.8417271452192366e-02 8.7938243167268745e-04 0.0000000000000000e+00  -1.8494944003917269e-02 -1.6204418339002119e-03 0.0000000000000000e+00  -1.8179360307404809e-02 -4.1785885410315325e-03 0.0000000000000000e+00  -1.7435047671075996e-02 -6.7732184565904305e-03 0.0000000000000000e+00  -1.6215272607136701e-02 -9.3626475537408309e-03 0.0000000000000000e+00  -1.4470807199569060e-02 -1.1873874890164400e-02 0.0000000000000000e+00  -1.2168539465626207e-02 -1.4194915829654360e-02 0.0000000000000000e+00  -9.3097725052550019e-03 -1.6174773111951743e-02 0.0000000000000000e+00  -5.9827663469875381e-03 -1.7573224509263980e-02 0.0000000000000000e+00  -2.3501461586272437e-03 -1.7351911619447474e-02 0.0000000000000000e+00  0.0000000000000000e+00 0.0000000000000000e+00 0.0000000000000000e+00  0.0000000000000000e+00 0.0000000000000000e+00 0.0000000000000000e+00  -2.2519870917945004e-03 1.8638017221332480e-02 0.0000000000000000e+00  -5.7329050123978414e-03 1.9002036623105990e-02 0.0000000000000000e+00  -9.0174403658905642e-03 1.7840397118413603e-02 0.0000000000000000e+00  -1.1969742448302258e-02 1.6158010921289805e-02 0.0000000000000000e+00  -1.4521022226805983e-02 1.4114421309752233e-02 0.0000000000000000e+00  -1.6645424197568218e-02 1.1807332311712921e-02 0.0000000000000000e+00  -1.8344614546791708e-02 9.3161407270548578e-03 0.0000000000000000e+00  -1.9635868401251873e-02 6.6969874466356683e-03 0.0000000000000000e+00  -2.0539786267967288e-02 3.9822062410545256e-03 0.0000000000000000e+00  -2.1069873988521153e-02 1.1839628055956848e-03 0.0000000000000000e+00  -2.1224098499333374e-02 -1.6992207076314235e-03 0.0000000000000000e+00  -2.0978323440007895e-02 -4.6733793027123050e-03 0.0000000000000000e+00  -2.0282151678358444e-02 -7.7367949299501412e-03 0.0000000000000000e+00  -1.9058567785893508e-02 -1.0863145158806500e-02 0.0000000000000000e+00  -1.7211929336550802e-02 -1.3980030974440566e-02 0.0000000000000000e+00  -1.4654669773778292e-02 -1.6949448068475179e-02 0.0000000000000000e+00  -1.1340154425919289e-02 -1.9558848799907099e-02 0.0000000000000000e+00  -7.3512866243351542e-03 -2.1457682538851910e-02 0.0000000000000000e+00  -2.9001648992740500e-03 -2.1301014912193512e-02 0.0000000000000000e+00  0.0000000000000000e+00 0.0000000000000000e+00 0.0000000000000000e+00  0.0000000000000000e+00 0.0000000000000000e+00 0.0000000000000000e+00  -2.6917221113414986e-03 2.2350909344872577e-02 0.0000000000000000e+00  -6.8257056566707018e-03 2.2714892793327879e-02 0.0000000000000000e+00  -1.0675022303444880e-02 2.1221844340318263e-02 0.0000000000000000e+00  -1.4070882618168183e-02 1.9104812596447539e-02 0.0000000000000000e+00  -1.6942141620813499e-02 1.6586324521088269e-02 0.0000000000000000e+00  -1.9281117314855666e-02 1.3805357706812472e-02 0.0000000000000000e+00  -2.1118420520271245e-02 1.0866352208093821e-02 0.0000000000000000e+00  -2.2502749161096836e-02 7.8344827706037321e-03 0.0000000000000000e+00  -2.3482986245920698e-02 4.7375787118555061e-03 0.0000000000000000e+00  -2.4094510578128107e-02 1.5726075549508947e-03 0.0000000000000000e+00  -2.4348545291801128e-02 -1.6857864523473381e-03 0.0000000000000000e+00  -2.4223087305009213e-02 -5.0751184927474817e-03 0.0000000000000000e+00  -2.3653500791848279e-02 -8.6304731772421581e-03 0.0000000000000000e+00  -2.2523564186187634e-02 -1.2361056613352956e-02 0.0000000000000000e+00  -2.0669726149616111e-02 -1.6216669213033802e-02 0.0000000000000000e+00  -1.7910207161367205e-02 -2.0048068641319163e-02 0.0000000000000000e+00  -1.4091038290827305e-02 -2.3563664449002243e-02 0.0000000000000000e+00  -9.2497416807384818e-03 -2.6225737450868456e-02 0.0000000000000000e+00  -3.6672047639149607e-03 -2.6232586569617879e-02 0.0000000000000000e+00  0.0000000000000000e+00 0.0000000000000000e+00 0.0000000000000000e+00  0.0000000000000000e+00 0.0000000000000000e+00 0.0000000000000000e+00  -3.2752698842508842e-03 2.6816959735290153e-02 0.0000000000000000e+00  -8.2554968396529767e-03 2.7124883363201163e-02 0.0000000000000000e+00  -1.2803151882877041e-02 2.5158597409281138e-02 0.0000000000000000e+00  -1.6706567968825022e-02 2.2449013865921234e-02 0.0000000000000000e+00  -1.9902398279758281e-02 1.9314797574711991e-02 0.0000000000000000e+00  -2.2421538025319574e-02 1.5954379078323894e-02 0.0000000000000000e+00  -2.4345170055572324e-02 1.2502828301081702e-02 0.0000000000000000e+00  -2.5771381879689283e-02 9.0315845519019413e-03 0.0000000000000000e+00  -2.6790767851433091e-02 5.5570930245146741e-03 0.0000000000000000e+00  -2.7470872075179776e-02 2.0525392027030080e-03 0.0000000000000000e+00  -2.7845566757747579e-02 -1.5416187752409654e-03 0.0000000000000000e+00  -2.7904182602724106e-02 -5.3078560916973100e-03 0.0000000000000000e+00  -2.7572962633847436e-02 -9.3367991788084158e-03 0.0000000000000000e+00  -2.6700276591997724e-02 -1.3706984354891033e-02 0.0000000000000000e+00  -2.5045763081712392e-02 -1.8452321250052500e-02 0.0000000000000000e+00  -2.2254038543086566e-02 -2.3463830810414008e-02 0.0000000000000000e+00  -1.7929935364510142e-02 -2.8325227363409936e-02 0.0000000000000000e+00  -1.1980715384668498e-02 -3.2174465883269471e-02 0.0000000000000000e+00  -4.7830805412116392e-03 -3.2534660624322816e-02 0.0000000000000000e+00  0.0000000000000000e+00 0.0000000000000000e+00 0.0000000000000000e+00  0.0000000000000000e+00 0.0000000000000000e+00 0.0000000000000000e+00  -4.0795994824926280e-03 3.2289619756273980e-02 0.0000000000000000e+00  -1.0185422888235509e-02 3.2429154137898937e-02 0.0000000000000000e+00  -1.5601737306015769e-02 2.9754997652165816e-02 0.0000000000000000e+00  -2.0065248583759753e-02 2.6208965286649295e-02 0.0000000000000000e+00  -2.3548238126723856e-02 2.2258300411065027e-02 0.0000000000000000e+00  -2.6160196383737108