<?xml version="1.0"?>
<VTKFile type="UnstructuredGrid"  version="0.1"  >
<UnstructuredGrid>
<Piece  NumberOfPoints="441" NumberOfCells="800">
<Points>
<DataArray  type="Float64"  NumberOfComponents="3"  format="ascii">0 0 0  0.05 0 0  0.1 0 0  0.15 0 0  0.2 0 0  0.25 0 0  0.3 0 0  0.35 0 0  0.4 0 0  0.45 0 0  0.5 0 0  0.55 0 0  0.6 0 0  0.65 0 0  0.7 0 0  0.75 0 0  0.8 0 0  0.85 0 0  0.9 0 0  0.95 0 0  1 0 0  0 0.05 0  0.05 0.05 0  0.1 0.05 0  0.15 0.05 0  0.2 0.05 0  0.25 0.05 0  0.3 0.05 0  0.35 0.05 0  0.4 0.05 0  0.45 0.05 0  0.5 0.05 0  0.55 0.05 0  0.6 0.05 0  0.65 0.05 0  0.7 0.05 0  0.75 0.05 0  0.8 0.05 0  0.85 0.05 0  0.9 0.05 0  0.95 0.05 0  1 0.05 0  0 0.1 0  0.05 0.1 0  0.1 0.1 0  0.15 0.1 0  0.2 0.1 0  0.25 0.1 0  0.3 0.1 0  0.35 0.1 0  0.4 0.1 0  0.45 0.1 0  0.5 0.1 0  0.55 0.1 0  0.6 0.1 0  0.65 0.1 0  0.7 0.1 0  0.75 0.1 0  0.8 0.1 0  0.85 0.1 0  0.9 0.1 0  0.95 0.1 0  1 0.1 0  0 0.15 0  0.05 0.15 0  0.1 0.15 0  0.15 0.15 0  0.2 0.15 0  0.25 0.15 0  0.3 0.15 0  0.35 0.15 0  0.4 0.15 0  0.45 0.15 0  0.5 0.15 0  0.55 0.15 0  0.6 0.15 0  0.65 0.15 0  0.7 0.15 0  0.75 0.15 0  0.8 0.15 0  0.85 0.15 0  0.9 0.15 0  0.95 0.15 0  1 0.15 0  0 0.2 0  0.05 0.2 0  0.1 0.2 0  0.15 0.2 0  0.2 0.2 0  0.25 0.2 0  0.3 0.2 0  0.35 0.2 0  0.4 0.2 0  0.45 0.2 0  0.5 0.2 0  0.55 0.2 0  0.6 0.2 0  0.65 0.2 0  0.7 0.2 0  0.75 0.2 0  0.8 0.2 0  0.85 0.2 0  0.9 0.2 0  0.95 0.2 0  1 0.2 0  0 0.25 0  0.05 0.25 0  0.1 0.25 0  0.15 0.25 0  0.2 0.25 0  0.25 0.25 0  0.3 0.25 0  0.35 0.25 0  0.4 0.25 0  0.45 0.25 0  0.5 0.25 0  0.55 0.25 0  0.6 0.25 0  0.65 0.25 0  0.7 0.25 0  0.75 0.25 0  0.8 0.25 0  0.85 0.25 0  0.9 0.25 0  0.95 0.25 0  1 0.25 0  0 0.3 0  0.05 0.3 0  0.1 0.3 0  0.15 0.3 0  0.2 0.3 0  0.25 0.3 0  0.3 0.3 0  0.35 0.3 0  0.4 0.3 0  0.45 0.3 0  0.5 0.3 0  0.55 0.3 0  0.6 0.3 0  0.65 0.3 0  0.7 0.3 0  0.75 0.3 0  0.8 0.3 0  0.85 0.3 0  0.9 0.3 0  0.95 0.3 0  1 0.3 0  0 0.35 0  0.05 0.35 0  0.1 0.35 0  0.15 0.35 0  0.2 0.35 0  0.25 0.35 0  0.3 0.35 0  0.35 0.35 0  0.4 0.35 0  0.45 0.35 0  0.5 0.35 0  0.55 0.35 0  0.6 0.35 0  0.65 0.35 0  0.7 0.35 0  0.75 0.35 0  0.8 0.35 0  0.85 0.35 0  0.9 0.35 0  0.95 0.35 0  1 0.35 0  0 0.4 0  0.05 0.4 0  0.1 0.4 0  0.15 0.4 0  0.2 0.4 0  0.25 0.4 0  0.3 0.4 0  0.35 0.4 0  0.4 0.4 0  0.45 0.4 0  0.5 0.4 0  0.55 0.4 0  0.6 0.4 0  0.65 0.4 0  0.7 0.4 0  0.75 0.4 0  0.8 0.4 0  0.85 0.4 0  0.9 0.4 0  0.95 0.4 0  1 0.4 0  0 0.45 0  0.05 0.45 0  0.1 0.45 0  0.15 0.45 0  0.2 0.45 0  0.25 0.45 0  0.3 0.45 0  0.35 0.45 0  0.4 0.45 0  0.45 0.45 0  0.5 0.45 0  0.55 0.45 0  0.6 0.45 0  0.65 0.45 0  0.7 0.45 0  0.75 0.45 0  0.8 0.45 0  0.85 0.45 0  0.9 0.45 0  0.95 0.45 0  1 0.45 0  0 0.5 0  0.05 0.5 0  0.1 0.5 0  0.15 0.5 0  0.2 0.5 0  0.25 0.5 0  0.3 0.5 0  0.35 0.5 0  0.4 0.5 0  0.45 0.5 0  0.5 0.5 0  0.55 0.5 0  0.6 0.5 0  0.65 0.5 0  0.7 0.5 0  0.75 0.5 0  0.8 0.5 0  0.85 0.5 0  0.9 0.5 0  0.95 0.5 0  1 0.5 0  0 0.55 0  0.05 0.55 0  0.1 0.55 0  0.15 0.55 0  0.2 0.55 0  0.25 0.55 0  0.3 0.55 0  0.35 0.55 0  0.4 0.55 0  0.45 0.55 0  0.5 0.55 0  0.55 0.55 0  0.6 0.55 0  0.65 0.55 0  0.7 0.55 0  0.75 0.55 0  0.8 0.55 0  0.85 0.55 0  0.9 0.55 0  0.95 0.55 0  1 0.55 0  0 0.6 0  0.05 0.6 0  0.1 0.6 0  0.15 0.6 0  0.2 0.6 0  0.25 0.6 0  0.3 0.6 0  0.35 0.6 0  0.4 0.6 0  0.45 0.6 0  0.5 0.6 0  0.55 0.6 0  0.6 0.6 0  0.65 0.6 0  0.7 0.6 0  0.75 0.6 0  0.8 0.6 0  0.85 0.6 0  0.9 0.6 0  0.95 0.6 0  1 0.6 0  0 0.65 0  0.05 0.65 0  0.1 0.65 0  0.15 0.65 0  0.2 0.65 0  0.25 0.65 0  0.3 0.65 0  0.35 0.65 0  0.4 0.65 0  0.45 0.65 0  0.5 0.65 0  0.55 0.65 0  0.6 0.65 0  0.65 0.65 0  0.7 0.65 0  0.75 0.65 0  0.8 0.65 0  0.85 0.65 0  0.9 0.65 0  0.95 0.65 0  1 0.65 0  0 0.7 0  0.05 0.7 0  0.1 0.7 0  0.15 0.7 0  0.2 0.7 0  0.25 0.7 0  0.3 0.7 0  0.35 0.7 0  0.4 0.7 0  0.45 0.7 0  0.5 0.7 0  0.55 0.7 0  0.6 0.7 0  0.65 0.7 0  0.7 0.7 0  0.75 0.7 0  0.8 0.7 0  0.85 0.7 0  0.9 0.7 0  0.95 0.7 0  1 0.7 0  0 0.75 0  0.05 0.75 0  0.1 0.75 0  0.15 0.75 0  0.2 0.75 0  0.25 0.75 0  0.3 0.75 0  0.35 0.75 0  0.4 0.75 0  0.45 0.75 0  0.5 0.75 0  0.55 0.75 0  0.6 0.75 0  0.65 0.75 0  0.7 0.75 0  0.75 0.75 0  0.8 0.75 0  0.85 0.75 0  0.9 0.75 0  0.95 0.75 0  1 0.75 0  0 0.8 0  0.05 0.8 0  0.1 0.8 0  0.15 0.8 0  0.2 0.8 0  0.25 0.8 0  0.3 0.8 0  0.35 0.8 0  0.4 0.8 0  0.45 0.8 0  0.5 0.8 0  0.55 0.8 0  0.6 0.8 0  0.65 0.8 0  0.7 0.8 0  0.75 0.8 0  0.8 0.8 0  0.85 0.8 0  0.9 0.8 0  0.95 0.8 0  1 0.8 0  0 0.85 0  0.05 0.85 0  0.1 0.85 0  0.15 0.85 0  0.2 0.85 0  0.25 0.85 0  0.3 0.85 0  0.35 0.85 0  0.4 0.85 0  0.45 0.85 0  0.5 0.85 0  0.55 0.85 0  0.6 0.85 0  0.65 0.85 0  0.7 0.85 0  0.75 0.85 0  0.8 0.85 0  0.85 0.85 0  0.9 0.85 0  0.95 0.85 0  1 0.85 0  0 0.9 0  0.05 0.9 0  0.1 0.9 0  0.15 0.9 0  0.2 0.9 0  0.25 0.9 0  0.3 0.9 0  0.35 0.9 0  0.4 0.9 0  0.45 0.9 0  0.5 0.9 0  0.55 0.9 0  0.6 0.9 0  0.65 0.9 0  0.7 0.9 0  0.75 0.9 0  0.8 0.9 0  0.85 0.9 0  0.9 0.9 0  0.95 0.9 0  1 0.9 0  0 0.95 0  0.05 0.95 0  0.1 0.95 0  0.15 0.95 0  0.2 0.95 0  0.25 0.95 0  0.3 0.95 0  0.35 0.95 0  0.4 0.95 0  0.45 0.95 0  0.5 0.95 0  0.55 0.95 0  0.6 0.95 0  0.65 0.95 0  0.7 0.95 0  0.75 0.95 0  0.8 0.95 0  0.85 0.95 0  0.9 0.95 0  0.95 0.95 0  1 0.95 0  0 1 0  0.05 1 0  0.1 1 0  0.15 1 0  0.2 1 0  0.25 1 0  0.3 1 0  0.35 1 0  0.4 1 0  0.45 1 0  0.5 1 0  0.55 1 0  0.6 1 0  0.65 1 0  0.7 1 0  0.75 1 0  0.8 1 0  0.85 1 0  0.9 1 0  0.95 1 0  1 1 0  </DataArray>
</Points>
<Cells>
[...]
<PointData  Vectors="f_137"> 
<DataArray  type="Float64"  Name="f_137"  NumberOfComponents="3" format="ascii">0.0000000000000000e+00 0.0000000000000000e+00 0.0000000000000000e+00  0.0000000000000000e+00 0.0000000000000000e+00 0.0000000000000000e+00  0.0000000000000000e+00 0.0000000000000000e+00 0.0000000000000000e+00  0.0000000000000000e+00 0.0000000000000000e+00 0.0000000000000000e+00  0.0000000000000000e+00 0.0000000000000000e+00 0.0000000000000000e+00  0.0000000000000000e+00 0.0000000000000000e+00 0.0000000000000000e+00  0.0000000000000000e+00 0.0000000000000000e+00 0.0000000000000000e+00  0.0000000000000000e+00 0.0000000000000000e+00 0.0000000000000000e+00  0.0000000000000000e+00 0.0000000000000000e+00 0.0000000000000000e+00  0.0000000000000000e+00 0.0000000000000000e+00 0.0000000000000000e+00  0.0000000000000000e+00 0.0000000000000000e+00 0.0000000000000000e+00  0.0000000000000000e+00 0.0000000000000000e+00 0.0000000000000000e+00  0.0000000000000000e+00 0.0000000000000000e+00 0.0000000000000000e+00  0.0000000000000000e+00 0.0000000000000000e+00 0.0000000000000000e+00  0.0000000000000000e+00 0.0000000000000000e+00 0.0000000000000000e+00  0.0000000000000000e+00 0.0000000000000000e+00 0.0000000000000000e+00  0.0000000000000000e+00 0.0000000000000000e+00 0.0000000000000000e+00  0.0000000000000000e+00 0.0000000000000000e+00 0.0000000000000000e+00  0.0000000000000000e+00 0.0000000000000000e+00 0.0000000000000000e+00  0.0000000000000000e+00 0.0000000000000000e+00 0.0000000000000000e+00  0.0000000000000000e+00 0.0000000000000000e+00 0.0000000000000000e+00  0.0000000000000000e+00 0.0000000000000000e+00 0.0000000000000000e+00  -8.3010402138713481e-04 8.2183263034394099e-04 0.0000000000000000e+00  -2.1468113389367213e-03 8.5392664744665485e-04 0.0000000000000000e+00  -3.4248936748725038e-03 8.0590363738344069e-04 0.0000000000000000e+00  -4.6139879490239366e-03 7.3906647873102208e-04 0.0000000000000000e+00  -5.6851441515108217e-03 6.5341041768597629e-04 0.0000000000000000e+00  -6.6105102665456007e-03 5.5107035351667120e-04 0.0000000000000000e+00  -7.3665604034641166e-03 4.3438095825879057e-04 0.0000000000000000e+00  -7.9336027439482846e-03 3.0588705019231327e-04 0.0000000000000000e+00  -8.2961405175232938e-03 1.6832829215754225e-04 0.0000000000000000e+00  -8.4431050011187000e-03 2.4639437078627976e-05 0.0000000000000000e+00  -8.3681127248094768e-03 -1.2200690219748215e-04 0.0000000000000000e+00  -8.0697981625676273e-03 -2.6814569169050637e-04 0.0000000000000000e+00  -7.5522206855399123e-03 -4.0998199046535510e-04 0.0000000000000000e+00  -6.8253114763691704e-03 -5.4340344726150076e-04 0.0000000000000000e+00  -5.9052272462233203e-03 -6.6407303074084384e-04 0.0000000000000000e+00  -4.8145429922670886e-03 -7.6770189944348245e-04 0.0000000000000000e+00  -3.5819856599460628e-03 -8.4981094382770230e-04 0.0000000000000000e+00  -2.2470161637085759e-03 -9.0116147535762798e-04 0.0000000000000000e+00  -8.5468526205640261e-04 -8.5279770962207364e-04 0.0000000000000000e+00  0.0000000000000000e+00 0.0000000000000000e+00 0.0000000000000000e+00  0.0000000000000000e+00 0.0000000000000000e+00 0.0000000000000000e+00  -9.1401188819639247e-04 2.1710440665675531e-03 0.0000000000000000e+00  -2.3491590997629535e-03 2.2426212094516498e-03 0.0000000000000000e+00  -3.7409266849675934e-03 2.1246962831818765e-03 0.0000000000000000e+00  -5.0387821746046679e-03 1.9475636376239894e-03 0.0000000000000000e+00  -6.2068683420868987e-03 1.7211094389777879e-03 0.0000000000000000e+00  -7.2158366065649734e-03 1.4510021261952759e-03 0.0000000000000000e+00  -8.0403087286497199e-03 1.1435979416720731e-03 0.0000000000000000e+00  -8.6592041870651084e-03 8.0577197495326964e-04 0.0000000000000000e+00  -9.0559812541356234e-03 4.4478711419109992e-04 0.0000000000000000e+00  -9.2187653187314582e-03 6.8311399498836482e-05 0.0000000000000000e+00  -9.1405579837906589e-03 -3.1546459990620555e-04 0.0000000000000000e+00  -8.8195664711666205e-03 -6.9766592950413315e-04 0.0000000000000000e+00  -8.2596704964149285e-03 -1.0686038590839479e-03 0.0000000000000000e+00  -7.4709847260663919e-03 -1.4177674793057070e-03 0.0000000000000000e+00  -6.4703578754264669e-03 -1.7340229370484900e-03 0.0000000000000000e+00  -5.2821164037120897e-03 -2.0061119850187390e-03 0.0000000000000000e+00  -3.9366207755972089e-03 -2.2229503560803076e-03 0.0000000000000000e+00  -2.4768402954772045e-03 -2.3612700407720172e-03 0.0000000000000000e+00  -9.6123625102018670e-04 -2.2828457133783663e-03 0.0000000000000000e+00  0.0000000000000000e+00 0.0000000000000000e+00 0.0000000000000000e+00  0.0000000000000000e+00 0.0000000000000000e+00 0.0000000000000000e+00  -9.6121751391136940e-04 3.5940634538685246e-03 0.0000000000000000e+00  -2.4795981009045976e-03 3.7062155788762808e-03 0.0000000000000000e+00  -3.9505764603637002e-03 3.5116642349933970e-03 0.0000000000000000e+00  -5.3220560597351868e-03 3.2177073174679688e-03 0.0000000000000000e+00  -6.5560911401715081e-03 2.8424516215375716e-03 0.0000000000000000e+00  -7.6224201906189160e-03 2.3955452259090729e-03 0.0000000000000000e+00  -8.4947555957038921e-03 1.8877629524183463e-03 0.0000000000000000e+00  -9.1514753537021085e-03 1.3305061451927864e-03 0.0000000000000000e+00  -9.5755503500109494e-03 7.3562150628097081e-04 0.0000000000000000e+00  -9.7545248702408990e-03 1.1546160530383663e-04 0.0000000000000000e+00  -9.6806129281963322e-03 -5.1686946964423180e-04 0.0000000000000000e+00  -9.3510048092673523e-03 -1.1471668818915507e-03 0.0000000000000000e+00  -8.7684311184963448e-03 -1.7598106419553434e-03 0.0000000000000000e+00  -7.9419527345529622e-03 -2.3376487176688695e-03 0.0000000000000000e+00  -6.8878031711723789e-03 -2.8622409416828839e-03 0.0000000000000000e+00  -5.6304729283125406e-03 -3.3146394038336816e-03 0.0000000000000000e+00  -4.2014027346989899e-03 -3.6758206693860576e-03 0.0000000000000000e+00  -2.6470461034172306e-03 -3.9104683898768507e-03 0.0000000000000000e+00  -1.0271227751411586e-03 -3.7915837998829696e-03 0.0000000000000000e+00  0.0000000000000000e+00 0.0000000000000000e+00 0.0000000000000000e+00  0.0000000000000000e+00 0.0000000000000000e+00 0.0000000000000000e+00  -1.0355490471820395e-03 5.1096907585178259e-03 0.0000000000000000e+00  -2.6701788974850221e-03 5.2684299921318036e-03 0.0000000000000000e+00  -4.2535508511388790e-03 4.9919754377700850e-03 0.0000000000000000e+00  -5.7286306893854777e-03 4.5730424792110530e-03 0.0000000000000000e+00  -7.0550377021895679e-03 4.0389845903061180e-03 0.0000000000000000e+00  -8.2011054211906884e-03 3.4042477550177805e-03 0.0000000000000000e+00  -9.1396805988577245e-03 2.6843827634611623e-03 0.0000000000000000e+00  -9.8486912568563224e-03 1.8955021658871515e-03 0.0000000000000000e+00  -1.0310718529835840e-02 1.0539922496119137e-03 0.0000000000000000e+00  -1.0512690522290860e-02 1.7663950649279494e-04 0.0000000000000000e+00  -1.0445757557969948e-02 -7.1890007900671465e-04 0.0000000000000000e+00  -1.0105527543366169e-02 -1.6134231928433568e-03 0.0000000000000000e+00  -9.4927597027577946e-03 -2.4855087970749581e-03 0.0000000000000000e+00  -8.6145111801937176e-03 -3.3111232380467698e-03 0.0000000000000000e+00  -7.4855220232447331e-03 -4.0637869875497518e-03 0.0000000000000000e+00  -6.1300385218277962e-03 -4.7156056676875557e-03 0.0000000000000000e+00  -4.5808118535511574e-03 -5.2382446259779426e-03 0.0000000000000000e+00  -2.8887896394037514e-03 -5.5814083814370655e-03 0.0000000000000000e+00  -1.1207076430450045e-03 -5.4218190596083352e-03 0.0000000000000000e+00  0.0000000000000000e+00 0.0000000000000000e+00 0.0000000000000000e+00  0.0000000000000000e+00 0.0000000000000000e+00 0.0000000000000000e+00  -1.1375539381583242e-03 6.7595445222426208e-03 0.0000000000000000e+00  -2.9319396332373698e-03 6.9669956986850475e-03 0.0000000000000000e+00  -4.6687093812468293e-03 6.5995856880022418e-03 0.0000000000000000e+00  -6.2842268606547614e-03 6.0431932962043342e-03 0.0000000000000000e+00  -7.7350898281169835e-03 5.3358512969176892e-03 0.0000000000000000e+00  -8.9878285687683343e-03 4.4976346950011490e-03 0.0000000000000000e+00  -1.0014578250723969e-02 3.5495492764587729e-03 0.0000000000000000e+00  -1.0793152050040007e-02 2.5127123750649798e-03 0.0000000000000000e+00  -1.1306098924119629e-02 1.4079191527424687e-03 0.0000000000000000e+00  -1.1539887354368873e-02 2.5589529041781362e-04 0.0000000000000000e+00  -1.1484388288027045e-02 -9.2186710740318632e-04 0.0000000000000000e+00  -1.1132936295811687e-02 -2.1018842902191565e-03 0.0000000000000000e+00  -1.0483155525385446e-02 -3.2573760580465773e-03 0.0000000000000000e+00  -9.5386098887475339e-03 -4.3572940719945304e-03 0.0000000000000000e+00  -8.3110481790983001e-03 -5.3661658380596859e-03 0.0000000000000000e+00  -6.8234553315223052e-03 -6.2453047348697728e-03 0.0000000000000000e+00  -5.1097586993588519e-03 -6.9543912652066057e-03 0.0000000000000000e+00  -3.2272496192007425e-03 -7.4244277591463213e-03 0.0000000000000000e+00  -1.2522786336206975e-03 -7.2235715307837449e-03 0.0000000000000000e+00  0.0000000000000000e+00 0.0000000000000000e+00 0.0000000000000000e+00  0.0000000000000000e+00 0.0000000000000000e+00 0.0000000000000000e+00  -1.2708585211884311e-03 8.5876010785768050e-03 0.0000000000000000e+00  -3.2736818884959700e-03 8.8469357179436527e-03 0.0000000000000000e+00  -5.2091312225468651e-03 8.3760163487417577e-03 0.0000000000000000e+00  -7.0051515149553286e-03 7.6646851523040210e-03 0.0000000000000000e+00  -8.6143527249757761e-03 6.7639328986312582e-03 0.0000000000000000e+00  -1.0001449792046818e-02 5.7010404046902458e-03 0.0000000000000000e+00  -1.1138429054456061e-02 4.5035405673334080e-03 0.0000000000000000e+00  -1.2003873351481037e-02 3.1979828991501023e-03 0.0000000000000000e+00  -1.2581179962838715e-02 1.8093113202554099e-03 0.0000000000000000e+00  -1.2856918760331383e-02 3.6132457667443704e-04 0.0000000000000000e+00  -1.2819652372208404e-02 -1.1219252046014044e-03 0.0000000000000000e+00  -1.2459628236406152e-02 -2.6140475692145713e-03 0.0000000000000000e+00  -1.1769669724065332e-02 -4.0839515352664134e-03 0.0000000000000000e+00  -1.0747468166247942e-02 -5.4937965989211588e-03 0.0000000000000000e+00  -9.3991046939793359e-03 -6.7980348582413501e-03 0.0000000000000000e+00  -7.7440914633773875e-03 -7.9445253954603719e-03 0.0000000000000000e+00  -5.8165651487808619e-03 -8.8768415811262512e-03 0.0000000000000000e+00  -3.6817416578308771e-03 -9.5013767153867522e-03 0.0000000000000000e+00  -1.4297638327446540e-03 -9.2597255333954631e-03 0.0000000000000000e+00  0.0000000000000000e+00 0.0000000000000000e+00 0.0000000000000000e+00  0.0000000000000000e+00 0.0000000000000000e+00 0.0000000000000000e+00  -1.4406104335986101e-03 1.0645118437755341e-02 0.0000000000000000e+00  -3.7080619820586782e-03 1.0959041299121083e-02 0.0000000000000000e+00  -5.8935150130948943e-03 1.0366489142820762e-02 0.0000000000000000e+00  -7.9139537957809650e-03 9.4757708302157934e-03 0.0000000000000000e+00  -9.7170949089192445e-03 8.3542611247075255e-03 0.0000000000000000e+00  -1.1266264358307384e-02 7.0388736517938092e-03 0.0000000000000000e+00  -1.2534606810205419e-02 5.5653098576018247e-03 0.0000000000000000e+00  -1.3503234331358206e-02 3.9661624347954328e-03 0.0000000000000000e+00  -1.4158119368994746e-02 2.2700529957301869e-03 0.0000000000000000e+00  -1.4487178345087611e-02 5.0241443989804645e-04 0.0000000000000000e+00  -1.4478029163067856e-02 -1.3122932001180328e-03 0.0000000000000000e+00  -1.4116978039028803e-02 -3.1472324937503091e-03 0.0000000000000000e+00  -1.3389758578833511e-02 -4.9691736526748130e-03 0.0000000000000000e+00  -1.2284504703353910e-02 -6.7345707384721572e-03 0.0000000000000000e+00  -1.0797033446047349e-02 -8.3869044794362066e-03 0.0000000000000000e+00  -8.9390294214969981e-03 -9.8570106275484466e-03 0.0000000000000000e+00  -6.7421129172977974e-03 -1.1066043345102501e-02 0.0000000000000000e+00  -4.2807899770671972e-03 -1.1886403259790368e-02 0.0000000000000000e+00  -1.6647046860974750e-03 -1.1607822903328260e-02 0.0000000000000000e+00  0.0000000000000000e+00 0.0000000000000000e+00 0.0000000000000000e+00  0.0000000000000000e+00 0.0000000000000000e+00 0.0000000000000000e+00  -1.6543133302512581e-03 1.2992562851313064e-02 0.0000000000000000e+00  -4.2533523202693364e-03 1.3362258566631886e-02 0.0000000000000000e+00  -6.7482736121234361e-03 1.2622025485621149e-02 0.0000000000000000e+00  -9.0416987936990101e-03 1.1517715866300625e-02 0.0000000000000000e+00  -1.1075638410556435e-02 1.0138373106192002e-02 0.0000000000000000e+00  -1.2813234842785568e-02 8.5343518979975989e-03 0.0000000000000000e+00  -1.4231314971158957e-02 6.7519891063249149e-03 0.0000000000000000e+00  -1.5316643653609061e-02 4.8307569465385804e-03 0.0000000000000000e+00  -1.6060794035908543e-02 2.8021516538090140e-03 0.0000000000000000e+00  -1.6455359246589175e-02 6.9097633777219698e-04 0.0000000000000000e+00  -1.6488112882740776e-02 -1.4813274774051505e-03 0.0000000000000000e+00  -1.6140761768172817e-02 -3.6916092358399806e-03 0.0000000000000000e+00  -1.5389029215339405e-02 -5.9085991883525693e-03 0.0000000000000000e+00  -1.4206049717571334e-02 -8.0859419977209138e-03 0.0000000000000000e+00  -1.2569762513559542e-02 -1.0156235562652136e-02 0.0000000000000000e+00  -1.0475834209194646e-02 -1.2028924746381398e-02 0.0000000000000000e+00  -7.9471049124707847e-03 -1.3593165610126036e-02 0.0000000000000000e+00  -5.0677060884129037e-03 -1.4672214985196426e-02 0.0000000000000000e+00  -1.9748152865475465e-03 -1.4367050405639738e-02 0.0000000000000000e+00  0.0000000000000000e+00 0.0000000000000000e+00 0.0000000000000000e+00  0.0000000000000000e+00 0.0000000000000000e+00 0.0000000000000000e+00  -1.9231278486829956e-03 1.5703998872010756e-02 0.0000000000000000e+00  -4.9362592911975306e-03 1.6127100628873632e-02 0.0000000000000000e+00  -7.8111701277247675e-03 1.5200984698772589e-02 0.0000000000000000e+00  -1.0431491332396131e-02 1.3834504871780734e-02 0.0000000000000000e+00  -1.2733038849280712e-02 1.2146611133249869e-02 0.0000000000000000e+00  -1.4681399062593385e-02 1.0206977038397912e-02 0.0000000000000000e+00  -1.6261586788318346e-02 8.0761603322431555e-03 0.0000000000000000e+00  -1.7471211786406760e-02 5.8015598548469098e-03 0.0000000000000000e+00  -1.8312362920884145e-02 3.4162192765109728e-03 0.0000000000000000e+00  -1.8784249747116320e-02 9.4092662412329441e-04 0.0000000000000000e+00  -1.8877163565925822e-02 -1.6110248577293955e-03 0.0000000000000000e+00  -1.8568261875143086e-02 -4.2266744387998616e-03 0.0000000000000000e+00  -1.7820067040220447e-02 -6.8839116289807724e-03 0.0000000000000000e+00  -1.6583285762369296e-02 -9.5400040108631224e-03 0.0000000000000000e+00  -1.4805808461360436e-02 -1.2119528806126503e-02 0.0000000000000000e+00  -1.2452264739085667e-02 -1.4506109013122083e-02 0.0000000000000000e+00  -9.5232672651442366e-03 -1.6542705130766316e-02 0.0000000000000000e+00  -6.1098364332832899e-03 -1.7978601817435325e-02 0.0000000000000000e+00  -2.3880873525138489e-03 -1.7670485590606879e-02 0.0000000000000000e+00  0.0000000000000000e+00 0.0000000000000000e+00 0.0000000000000000e+00  0.0000000000000000e+00 0.0000000000000000e+00 0.0000000000000000e+00  -2.2640943090461302e-03 1.8873731299099094e-02 0.0000000000000000e+00  -5.7967630669601197e-03 1.9340502501585009e-02 0.0000000000000000e+00  -9.1373206061851030e-03 1.8171050664473599e-02 0.0000000000000000e+00  -1.2144077295477207e-02 1.6471999768205181e-02 0.0000000000000000e+00  -1.4747157912966697e-02 1.4405166701207877e-02 0.0000000000000000e+00  -1.6919877524674005e-02 1.2068467052865257e-02 0.0000000000000000e+00  -1.8663177025198586e-02 9.5416095278479350e-03 0.0000000000000000e+00  -1.9993738269622505e-02 6.8809559746942058e-03 0.0000000000000000e+00  -2.0931642033538232e-02 4.1188962398636935e-03 0.0000000000000000e+00  -2.1489819412317031e-02 1.2673940748577645e-03 0.0000000000000000e+00  -2.1665371128583664e-02 -1.6755245368516511e-03 0.0000000000000000e+00  -2.1432665919118611e-02 -4.7166002493939270e-03 0.0000000000000000e+00  -2.0738866241218089e-02 -7.8547508722460139e-03 0.0000000000000000e+00  -1.9503220575629143e-02 -1.1063553357046160e-02 0.0000000000000000e+00  -1.7624948712488424e-02 -1.4268449177650694e-02 0.0000000000000000e+00  -1.5011491307713593e-02 -1.7325747989285181e-02 0.0000000000000000e+00  -1.1613348225550419e-02 -2.0013947482383637e-02 0.0000000000000000e+00  -7.5162187613944760e-03 -2.1967024204520114e-02 0.0000000000000000e+00  -2.9505726190557427e-03 -2.1707122834231991e-02 0.0000000000000000e+00  0.0000000000000000e+00 0.0000000000000000e+00 0.0000000000000000e+00  0.0000000000000000e+00 0.0000000000000000e+00 0.0000000000000000e+00  -2.7041491970246504e-03 2.2627083456846695e-02 0.0000000000000000e+00  -6.8965427361193880e-03 2.3113158491992865e-02 0.0000000000000000e+00  -1.0809184654387594e-02 2.1611478995733572e-02 0.0000000000000000e+00  -1.4266668371336416e-02 1.9475502178072115e-02 0.0000000000000000e+00  -1.7196620877159643e-02 1.6930560738836940e-02 0.0000000000000000e+00  -1.9590456286052327e-02 1.4115961173433434e-02 0.0000000000000000e+00  -2.1478062550758972e-02 1.1136638618001052e-02 0.0000000000000000e+00  -2.2907674646407219e-02 8.0581661262403084e-03 0.0000000000000000e+00  -2.3927940082530106e-02 4.9085202278535125e-03 0.0000000000000000e+00  -2.4574078696113940e-02 1.6843649630386092e-03 0.0000000000000000e+00  -2.4856907761338913e-02 -1.6405831928694545e-03 0.0000000000000000e+00  -2.4753373987652420e-02 -5.1055564709014756e-03 0.0000000000000000e+00  -2.4196350051032663e-02 -8.7479643874383145e-03 0.0000000000000000e+00  -2.3064261965144661e-02 -1.2578627015306400e-02 0.0000000000000000e+00  -2.1185151289015988e-02 -1.6546240936829701e-02 0.0000000000000000e+00  -1.8367992810367745e-02 -2.0496218124013910e-02 0.0000000000000000e+00  -1.4450638325661484e-02 -2.4125646101524335e-02 0.0000000000000000e+00  -9.4707824796194436e-03 -2.6871210392402384e-02 0.0000000000000000e+00  -3.7360389188228053e-03 -2.6756351535756069e-02 0.0000000000000000e+00  0.0000000000000000e+00 0.0000000000000000e+00 0.0000000000000000e+00  0.0000000000000000e+00 0.0000000000000000e+00 0.0000000000000000e+00  -3.2876984393555740e-03 2.7138269670908727e-02 0.0000000000000000e+00  -8.3340807753009751e-03 2.7590774282675087e-02 0.0000000000000000e+00  -1.2953478848203543e-02 2.5615007034597657e-02 0.0000000000000000e+00  -1.6926742970304779e-02 2.2883938279104916e-02 0.0000000000000000e+00  -2.0189091994601470e-02 1.9719666569557485e-02 0.0000000000000000e+00  -2.2770359997936741e-02 1.6321119981027206e-02 0.0000000000000000e+00  -2.4750949739929043e-02 1.2824174798932839e-02 0.0000000000000000e+00  -2.6228635435200421e-02 9.3010385108347176e-03 0.0000000000000000e+00  -2.7294197193875776e-02 5.7686192582586714e-03 0.0000000000000000e+00  -2.8015715587315460e-02 2.1999038002849291e-03 0.0000000000000000e+00  -2.8427698069918076e-02 -1.4660002195159480e-03 0.0000000000000000e+00  -2.8519761809558990e-02 -5.3145113351283548e-03 0.0000000000000000e+00  -2.8215574114779440e-02 -9.4402034748667617e-03 0.0000000000000000e+00  -2.7357327741255870e-02 -1.3925445050384982e-02 0.0000000000000000e+00  -2.5696382219315948e-02 -1.8811004200177985e-02 0.0000000000000000e+00  -2.2858035293031508e-02 -2.3991919177164235e-02 0.0000000000000000e+00  -1.8421153270547906e-02 -2.9030955053177154e-02 0.0000000000000000e+00  -1.2285442083212412e-02 -3.3008806880254461e-02 0.0000000000000000e+00  -4.8758291802492139e-03 -3.3213303707900911e-02 0.0000000000000000e+00  0.0000000000000000e+00 0.0000000000000000e+00 0.0000000000000000e+00  0.0000000000000000e+00 0.0000000000000000e+00 0.0000000000000000e+00  -4.0915995567494317e-03 3.2661399383278562e-02 0.0000000000000000e+00  -1.0272610933020293e-02 3.2971658106273546e-02 0.0000000000000000e+00  -1.5770334628054231e-02 3.0287151659372728e-02 0.0000000000000000e+00  -2.0313151615726225e-02 2.6716745913189385e-02 0.0000000000000000e+00  -2.3871593691874648e-02 2.2731849662235216e-02 0.0000000000000000e+00  -2.6553750354210801