<?xml version="1.0"?>
<VTKFile type="UnstructuredGrid"  version="0.1"  >
<UnstructuredGrid>
<Piece  NumberOfPoints="441" NumberOfCells="800">
<Points>
<DataArray  type="Float64"  NumberOfComponents="3"  format="ascii">0 0 0  0.05 0 0  0.1 0 0  0.15 0 0  0.2 0 0  0.25 0 0  0.3 0 0  0.35 0 0  0.4 0 0  0.45 0 0  0.5 0 0  0.55 0 0  0.6 0 0  0.65 0 0  0.7 0 0  0.75 0 0  0.8 0 0  0.85 0 0  0.9 0 0  0.95 0 0  1 0 0  0 0.05 0  0.05 0.05 0  0.1 0.05 0  0.15 0.05 0  0.2 0.05 0  0.25 0.05 0  0.3 0.05 0  0.35 0.05 0  0.4 0.05 0  0.45 0.05 0  0.5 0.05 0  0.55 0.05 0  0.6 0.05 0  0.65 0.05 0  0.7 0.05 0  0.75 0.05 0  0.8 0.05 0  0.85 0.05 0  0.9 0.05 0  0.95 0.05 0  1 0.05 0  0 0.1 0  0.05 0.1 0  0.1 0.1 0  0.15 0.1 0  0.2 0.1 0  0.25 0.1 0  0.3 0.1 0  0.35 0.1 0  0.4 0.1 0  0.45 0.1 0  0.5 0.1 0  0.55 0.1 0  0.6 0.1 0  0.65 0.1 0  0.7 0.1 0  0.75 0.1 0  0.8 0.1 0  0.85 0.1 0  0.9 0.1 0  0.95 0.1 0  1 0.1 0  0 0.15 0  0.05 0.15 0  0.1 0.15 0  0.15 0.15 0  0.2 0.15 0  0.25 0.15 0  0.3 0.15 0  0.35 0.15 0  0.4 0.15 0  0.45 0.15 0  0.5 0.15 0  0.55 0.15 0  0.6 0.15 0  0.65 0.15 0  0.7 0.15 0  0.75 0.15 0  0.8 0.15 0  0.85 0.15 0  0.9 0.15 0  0.95 0.15 0  1 0.15 0  0 0.2 0  0.05 0.2 0  0.1 0.2 0  0.15 0.2 0  0.2 0.2 0  0.25 0.2 0  0.3 0.2 0  0.35 0.2 0  0.4 0.2 0  0.45 0.2 0  0.5 0.2 0  0.55 0.2 0  0.6 0.2 0  0.65 0.2 0  0.7 0.2 0  0.75 0.2 0  0.8 0.2 0  0.85 0.2 0  0.9 0.2 0  0.95 0.2 0  1 0.2 0  0 0.25 0  0.05 0.25 0  0.1 0.25 0  0.15 0.25 0  0.2 0.25 0  0.25 0.25 0  0.3 0.25 0  0.35 0.25 0  0.4 0.25 0  0.45 0.25 0  0.5 0.25 0  0.55 0.25 0  0.6 0.25 0  0.65 0.25 0  0.7 0.25 0  0.75 0.25 0  0.8 0.25 0  0.85 0.25 0  0.9 0.25 0  0.95 0.25 0  1 0.25 0  0 0.3 0  0.05 0.3 0  0.1 0.3 0  0.15 0.3 0  0.2 0.3 0  0.25 0.3 0  0.3 0.3 0  0.35 0.3 0  0.4 0.3 0  0.45 0.3 0  0.5 0.3 0  0.55 0.3 0  0.6 0.3 0  0.65 0.3 0  0.7 0.3 0  0.75 0.3 0  0.8 0.3 0  0.85 0.3 0  0.9 0.3 0  0.95 0.3 0  1 0.3 0  0 0.35 0  0.05 0.35 0  0.1 0.35 0  0.15 0.35 0  0.2 0.35 0  0.25 0.35 0  0.3 0.35 0  0.35 0.35 0  0.4 0.35 0  0.45 0.35 0  0.5 0.35 0  0.55 0.35 0  0.6 0.35 0  0.65 0.35 0  0.7 0.35 0  0.75 0.35 0  0.8 0.35 0  0.85 0.35 0  0.9 0.35 0  0.95 0.35 0  1 0.35 0  0 0.4 0  0.05 0.4 0  0.1 0.4 0  0.15 0.4 0  0.2 0.4 0  0.25 0.4 0  0.3 0.4 0  0.35 0.4 0  0.4 0.4 0  0.45 0.4 0  0.5 0.4 0  0.55 0.4 0  0.6 0.4 0  0.65 0.4 0  0.7 0.4 0  0.75 0.4 0  0.8 0.4 0  0.85 0.4 0  0.9 0.4 0  0.95 0.4 0  1 0.4 0  0 0.45 0  0.05 0.45 0  0.1 0.45 0  0.15 0.45 0  0.2 0.45 0  0.25 0.45 0  0.3 0.45 0  0.35 0.45 0  0.4 0.45 0  0.45 0.45 0  0.5 0.45 0  0.55 0.45 0  0.6 0.45 0  0.65 0.45 0  0.7 0.45 0  0.75 0.45 0  0.8 0.45 0  0.85 0.45 0  0.9 0.45 0  0.95 0.45 0  1 0.45 0  0 0.5 0  0.05 0.5 0  0.1 0.5 0  0.15 0.5 0  0.2 0.5 0  0.25 0.5 0  0.3 0.5 0  0.35 0.5 0  0.4 0.5 0  0.45 0.5 0  0.5 0.5 0  0.55 0.5 0  0.6 0.5 0  0.65 0.5 0  0.7 0.5 0  0.75 0.5 0  0.8 0.5 0  0.85 0.5 0  0.9 0.5 0  0.95 0.5 0  1 0.5 0  0 0.55 0  0.05 0.55 0  0.1 0.55 0  0.15 0.55 0  0.2 0.55 0  0.25 0.55 0  0.3 0.55 0  0.35 0.55 0  0.4 0.55 0  0.45 0.55 0  0.5 0.55 0  0.55 0.55 0  0.6 0.55 0  0.65 0.55 0  0.7 0.55 0  0.75 0.55 0  0.8 0.55 0  0.85 0.55 0  0.9 0.55 0  0.95 0.55 0  1 0.55 0  0 0.6 0  0.05 0.6 0  0.1 0.6 0  0.15 0.6 0  0.2 0.6 0  0.25 0.6 0  0.3 0.6 0  0.35 0.6 0  0.4 0.6 0  0.45 0.6 0  0.5 0.6 0  0.55 0.6 0  0.6 0.6 0  0.65 0.6 0  0.7 0.6 0  0.75 0.6 0  0.8 0.6 0  0.85 0.6 0  0.9 0.6 0  0.95 0.6 0  1 0.6 0  0 0.65 0  0.05 0.65 0  0.1 0.65 0  0.15 0.65 0  0.2 0.65 0  0.25 0.65 0  0.3 0.65 0  0.35 0.65 0  0.4 0.65 0  0.45 0.65 0  0.5 0.65 0  0.55 0.65 0  0.6 0.65 0  0.65 0.65 0  0.7 0.65 0  0.75 0.65 0  0.8 0.65 0  0.85 0.65 0  0.9 0.65 0  0.95 0.65 0  1 0.65 0  0 0.7 0  0.05 0.7 0  0.1 0.7 0  0.15 0.7 0  0.2 0.7 0  0.25 0.7 0  0.3 0.7 0  0.35 0.7 0  0.4 0.7 0  0.45 0.7 0  0.5 0.7 0  0.55 0.7 0  0.6 0.7 0  0.65 0.7 0  0.7 0.7 0  0.75 0.7 0  0.8 0.7 0  0.85 0.7 0  0.9 0.7 0  0.95 0.7 0  1 0.7 0  0 0.75 0  0.05 0.75 0  0.1 0.75 0  0.15 0.75 0  0.2 0.75 0  0.25 0.75 0  0.3 0.75 0  0.35 0.75 0  0.4 0.75 0  0.45 0.75 0  0.5 0.75 0  0.55 0.75 0  0.6 0.75 0  0.65 0.75 0  0.7 0.75 0  0.75 0.75 0  0.8 0.75 0  0.85 0.75 0  0.9 0.75 0  0.95 0.75 0  1 0.75 0  0 0.8 0  0.05 0.8 0  0.1 0.8 0  0.15 0.8 0  0.2 0.8 0  0.25 0.8 0  0.3 0.8 0  0.35 0.8 0  0.4 0.8 0  0.45 0.8 0  0.5 0.8 0  0.55 0.8 0  0.6 0.8 0  0.65 0.8 0  0.7 0.8 0  0.75 0.8 0  0.8 0.8 0  0.85 0.8 0  0.9 0.8 0  0.95 0.8 0  1 0.8 0  0 0.85 0  0.05 0.85 0  0.1 0.85 0  0.15 0.85 0  0.2 0.85 0  0.25 0.85 0  0.3 0.85 0  0.35 0.85 0  0.4 0.85 0  0.45 0.85 0  0.5 0.85 0  0.55 0.85 0  0.6 0.85 0  0.65 0.85 0  0.7 0.85 0  0.75 0.85 0  0.8 0.85 0  0.85 0.85 0  0.9 0.85 0  0.95 0.85 0  1 0.85 0  0 0.9 0  0.05 0.9 0  0.1 0.9 0  0.15 0.9 0  0.2 0.9 0  0.25 0.9 0  0.3 0.9 0  0.35 0.9 0  0.4 0.9 0  0.45 0.9 0  0.5 0.9 0  0.55 0.9 0  0.6 0.9 0  0.65 0.9 0  0.7 0.9 0  0.75 0.9 0  0.8 0.9 0  0.85 0.9 0  0.9 0.9 0  0.95 0.9 0  1 0.9 0  0 0.95 0  0.05 0.95 0  0.1 0.95 0  0.15 0.95 0  0.2 0.95 0  0.25 0.95 0  0.3 0.95 0  0.35 0.95 0  0.4 0.95 0  0.45 0.95 0  0.5 0.95 0  0.55 0.95 0  0.6 0.95 0  0.65 0.95 0  0.7 0.95 0  0.75 0.95 0  0.8 0.95 0  0.85 0.95 0  0.9 0.95 0  0.95 0.95 0  1 0.95 0  0 1 0  0.05 1 0  0.1 1 0  0.15 1 0  0.2 1 0  0.25 1 0  0.3 1 0  0.35 1 0  0.4 1 0  0.45 1 0  0.5 1 0  0.55 1 0  0.6 1 0  0.65 1 0  0.7 1 0  0.75 1 0  0.8 1 0  0.85 1 0  0.9 1 0  0.95 1 0  1 1 0  </DataArray>
</Points>
<Cells>
[...]
<PointData  Vectors="f_137"> 
<DataArray  type="Float64"  Name="f_137"  NumberOfComponents="3" format="ascii">0.0000000000000000e+00 0.0000000000000000e+00 0.0000000000000000e+00  0.0000000000000000e+00 0.0000000000000000e+00 0.0000000000000000e+00  0.0000000000000000e+00 0.0000000000000000e+00 0.0000000000000000e+00  0.0000000000000000e+00 0.0000000000000000e+00 0.0000000000000000e+00  0.0000000000000000e+00 0.0000000000000000e+00 0.0000000000000000e+00  0.0000000000000000e+00 0.0000000000000000e+00 0.0000000000000000e+00  0.0000000000000000e+00 0.0000000000000000e+00 0.0000000000000000e+00  0.0000000000000000e+00 0.0000000000000000e+00 0.0000000000000000e+00  0.0000000000000000e+00 0.0000000000000000e+00 0.0000000000000000e+00  0.0000000000000000e+00 0.0000000000000000e+00 0.0000000000000000e+00  0.0000000000000000e+00 0.0000000000000000e+00 0.0000000000000000e+00  0.0000000000000000e+00 0.0000000000000000e+00 0.0000000000000000e+00  0.0000000000000000e+00 0.0000000000000000e+00 0.0000000000000000e+00  0.0000000000000000e+00 0.0000000000000000e+00 0.0000000000000000e+00  0.0000000000000000e+00 0.0000000000000000e+00 0.0000000000000000e+00  0.0000000000000000e+00 0.0000000000000000e+00 0.0000000000000000e+00  0.0000000000000000e+00 0.0000000000000000e+00 0.0000000000000000e+00  0.0000000000000000e+00 0.0000000000000000e+00 0.0000000000000000e+00  0.0000000000000000e+00 0.0000000000000000e+00 0.0000000000000000e+00  0.0000000000000000e+00 0.0000000000000000e+00 0.0000000000000000e+00  0.0000000000000000e+00 0.0000000000000000e+00 0.0000000000000000e+00  0.0000000000000000e+00 0.0000000000000000e+00 0.0000000000000000e+00  -8.3205984271190732e-04 8.2383456302113499e-04 0.0000000000000000e+00  -2.1649495250438250e-03 8.6195204355462673e-04 0.0000000000000000e+00  -3.4619253621290076e-03 8.1374207663554579e-04 0.0000000000000000e+00  -4.6689843683299708e-03 7.4669237179606407e-04 0.0000000000000000e+00  -5.7569509179265857e-03 6.6063790552704793e-04 0.0000000000000000e+00  -6.6974989307665546e-03 5.5769994390231518e-04 0.0000000000000000e+00  -7.4666711888910376e-03 4.4019322934750796e-04 0.0000000000000000e+00  -8.0443463302455522e-03 3.1064950167016719e-04 0.0000000000000000e+00  -8.4146164101934831e-03 1.7180581676539073e-04 0.0000000000000000e+00  -8.5660370124028325e-03 2.6607541303576382e-05 0.0000000000000000e+00  -8.4919055927111572e-03 -1.2174549282679915e-04 0.0000000000000000e+00  -8.1906199802343829e-03 -2.6974160901137393e-04 0.0000000000000000e+00  -7.6661142562962133e-03 -4.1351827951122860e-04 0.0000000000000000e+00  -6.9283365258607258e-03 -5.4887563594108375e-04 0.0000000000000000e+00  -5.9936262451945419e-03 -6.7137013813909187e-04 0.0000000000000000e+00  -4.8849384875676669e-03 -7.7659710215370137e-04 0.0000000000000000e+00  -3.6315387718026202e-03 -8.6000553743659474e-04 0.0000000000000000e+00  -2.2737549302448480e-03 -9.1182963826591165e-04 0.0000000000000000e+00  -8.6024170611090876e-04 -8.5845719658392803e-04 0.0000000000000000e+00  0.0000000000000000e+00 0.0000000000000000e+00 0.0000000000000000e+00  0.0000000000000000e+00 0.0000000000000000e+00 0.0000000000000000e+00  -9.2215925159554917e-04 2.1894305275787680e-03 0.0000000000000000e+00  -2.3822853756718266e-03 2.2749929272582519e-03 0.0000000000000000e+00  -3.8007712598638588e-03 2.1561805741948251e-03 0.0000000000000000e+00  -5.1240455698714025e-03 1.9774005797446154e-03 0.0000000000000000e+00  -6.3155901053750354e-03 1.7485378545340222e-03 0.0000000000000000e+00  -7.3454329050529517e-03 1.4752867926032969e-03 0.0000000000000000e+00  -8.1876257269681181e-03 1.1640026439704140e-03 0.0000000000000000e+00  -8.8205486567499141e-03 8.2157830675808942e-04 0.0000000000000000e+00  -9.2271687659576072e-03 4.5531848433650674e-04 0.0000000000000000e+00  -9.3951813954679057e-03 7.2964602140976418e-05 0.0000000000000000e+00  -9.3172395677673433e-03 -3.1717930000823284e-04 0.0000000000000000e+00  -8.9913091864984220e-03 -7.0607687536338945e-04 0.0000000000000000e+00  -8.4211669886852820e-03 -1.0838251104287888e-03 0.0000000000000000e+00  -7.6169986224966209e-03 -1.4396468301535153e-03 0.0000000000000000e+00  -6.5959211413135011e-03 -1.7620975609286482e-03 0.0000000000000000e+00  -5.3827812346536955e-03 -2.0395737799839483e-03 0.0000000000000000e+00  -4.0086784659613631e-03 -2.2606887284429855e-03 0.0000000000000000e+00  -2.5176237683358564e-03 -2.4012887929974946e-03 0.0000000000000000e+00  -9.7206715188930155e-04 -2.3099978052632786e-03 0.0000000000000000e+00  0.0000000000000000e+00 0.0000000000000000e+00 0.0000000000000000e+00  0.0000000000000000e+00 0.0000000000000000e+00 0.0000000000000000e+00  -9.6930900700754278e-04 3.6324399219301701e-03 0.0000000000000000e+00  -2.5137499442944517e-03 3.7662439931869401e-03 0.0000000000000000e+00  -4.0126800702373891e-03 3.5699766185798075e-03 0.0000000000000000e+00  -5.4108177113862685e-03 3.2727145230990531e-03 0.0000000000000000e+00  -6.6695272380644646e-03 2.8927687325354745e-03 0.0000000000000000e+00  -7.7579293404406308e-03 2.4398271947463752e-03 0.0000000000000000e+00  -8.6491360195871357e-03 1.9247024135293825e-03 0.0000000000000000e+00  -9.3209583127637566e-03 1.3588507407043850e-03 0.0000000000000000e+00  -9.7558378886962917e-03 7.5420963691512550e-04 0.0000000000000000e+00  -9.9408406718186071e-03 1.2327085436554901e-04 0.0000000000000000e+00  -9.8677727143627308e-03 -5.2065917517357175e-04 0.0000000000000000e+00  -9.5335141778734502e-03 -1.1630950541322172e-03 0.0000000000000000e+00  -8.9406197868657118e-03 -1.7880466761366336e-03 0.0000000000000000e+00  -8.0981541401760077e-03 -2.3779003411427495e-03 0.0000000000000000e+00  -7.0225716347589919e-03 -2.9136722636481688e-03 0.0000000000000000e+00  -5.7388731859635816e-03 -3.3758078853009235e-03 0.0000000000000000e+00  -4.2792608833926707e-03 -3.7447136940454268e-03 0.0000000000000000e+00  -2.6912899165060463e-03 -3.9836989113091886e-03 0.0000000000000000e+00  -1.0391178326419408e-03 -3.8438412675906616e-03 0.0000000000000000e+00  0.0000000000000000e+00 0.0000000000000000e+00 0.0000000000000000e+00  0.0000000000000000e+00 0.0000000000000000e+00 0.0000000000000000e+00  -1.0438595564335794e-03 5.1686642281867333e-03 0.0000000000000000e+00  -2.7060485241256166e-03 5.3574862176809721e-03 0.0000000000000000e+00  -4.3190536110371902e-03 5.0785006822854821e-03 0.0000000000000000e+00  -5.8224755360106730e-03 4.6546024060129506e-03 0.0000000000000000e+00  -7.1752232553306365e-03 4.1135534709537515e-03 0.0000000000000000e+00  -8.3449989234577870e-03 3.4698575337787077e-03 0.0000000000000000e+00  -9.3040228787002986e-03 2.7391292123216142e-03 0.0000000000000000e+00  -1.0029623455945632e-02 1.9375633672202089e-03 0.0000000000000000e+00  -1.0503804977230798e-02 1.0816732625972992e-03 0.0000000000000000e+00  -1.0712952777263245e-02 1.8843511692350715e-04 0.0000000000000000e+00  -1.0647724701316343e-02 -7.2421958414998382e-04 0.0000000000000000e+00  -1.0303314507449214e-02 -1.6367000944927724e-03 0.0000000000000000e+00  -9.6801886181087805e-03 -2.5270626306751537e-03 0.0000000000000000e+00  -8.7852933519988810e-03 -3.3706041899371959e-03 0.0000000000000000e+00  -7.6334978223385501e-03 -4.1400368675247766e-03 0.0000000000000000e+00  -6.2495240225571491e-03 -4.8065434558388900e-03 0.0000000000000000e+00  -4.6669162884621519e-03 -5.3408932032868962e-03 0.0000000000000000e+00  -2.9378618879488190e-03 -5.6908498167814346e-03 0.0000000000000000e+00  -1.1340946289512741e-03 -5.5016098982549307e-03 0.0000000000000000e+00  0.0000000000000000e+00 0.0000000000000000e+00 0.0000000000000000e+00  0.0000000000000000e+00 0.0000000000000000e+00 0.0000000000000000e+00  -1.1462015007375607e-03 6.8403616336969227e-03 0.0000000000000000e+00  -2.9701987774478004e-03 7.0870789789269154e-03 0.0000000000000000e+00  -4.7389260315511090e-03 6.7163263886934142e-03 0.0000000000000000e+00  -6.3851089142224265e-03 6.1532940361276834e-03 0.0000000000000000e+00  -7.8646116400030528e-03 5.4366305185968378e-03 0.0000000000000000e+00  -9.1433119564796137e-03 4.5864804945591840e-03 0.0000000000000000e+00  -1.0192689949463223e-02 3.6239288506590755e-03 0.0000000000000000e+00  -1.0989920186686330e-02 2.5701908381063022e-03 0.0000000000000000e+00  -1.1516918930554955e-02 1.4462069500979465e-03 0.0000000000000000e+00  -1.1759531553797307e-02 2.7291958169253593e-04 0.0000000000000000e+00  -1.1707024364537581e-02 -9.2785747934109246e-04 0.0000000000000000e+00  -1.1352170615007687e-02 -2.1321710892879789e-03 0.0000000000000000e+00  -1.0692125131894301e-02 -3.3125792491628088e-03 0.0000000000000000e+00  -9.7301551988163097e-03 -4.4371471101082730e-03 0.0000000000000000e+00  -8.4779762264927342e-03 -5.4692854531229514e-03 0.0000000000000000e+00  -6.9589671173648036e-03 -6.3689877686603068e-03 0.0000000000000000e+00  -5.2078758962522467e-03 -7.0946013978564594e-03 0.0000000000000000e+00  -3.2834371750149350e-03 -7.5744580669133343e-03 0.0000000000000000e+00  -1.2677966499911838e-03 -7.3344106221614157e-03 0.0000000000000000e+00  0.0000000000000000e+00 0.0000000000000000e+00 0.0000000000000000e+00  0.0000000000000000e+00 0.0000000000000000e+00 0.0000000000000000e+00  -1.2799433676501208e-03 8.6918858684331447e-03 0.0000000000000000e+00  -3.3150306403763189e-03 9.0006670013233481e-03 0.0000000000000000e+00  -5.2854158275858461e-03 8.5256286849417582e-03 0.0000000000000000e+00  -7.1150829409729072e-03 7.8059722073502780e-03 0.0000000000000000e+00  -8.7558773882295791e-03 6.8935325289257738e-03 0.0000000000000000e+00  -1.0171834956188069e-02 5.8156693992327899e-03 0.0000000000000000e+00  -1.1334259336302468e-02 4.6000049679850354e-03 0.0000000000000000e+00  -1.2221056937828571e-02 3.2731882219415370e-03 0.0000000000000000e+00  -1.2814936151635032e-02 1.8603039074306515e-03 0.0000000000000000e+00  -1.3101755417288384e-02 3.8536059601729683e-04 0.0000000000000000e+00  -1.3069337125872001e-02 -1.1272654723748119e-03 0.0000000000000000e+00  -1.2707172443338096e-02 -2.6506794681335072e-03 0.0000000000000000e+00  -1.2007360441835485e-02 -4.1530257931501197e-03 0.0000000000000000e+00  -1.0967003004861668e-02 -5.5953648379703704e-03 0.0000000000000000e+00  -9.5918649448137883e-03 -6.9306735149951672e-03 0.0000000000000000e+00  -7.9016738763906628e-03 -8.1049740399819405e-03 0.0000000000000000e+00  -5.9313773677478225e-03 -9.0598909109792930e-03 0.0000000000000000e+00  -3.7479017508271254e-03 -9.6981578331356774e-03 0.0000000000000000e+00  -1.4483171927012792e-03 -9.4066755076195104e-03 0.0000000000000000e+00  0.0000000000000000e+00 0.0000000000000000e+00 0.0000000000000000e+00  0.0000000000000000e+00 0.0000000000000000e+00 0.0000000000000000e+00  -1.4501955588912491e-03 1.0774914838404434e-02 0.0000000000000000e+00  -3.7531775176152847e-03 1.1149717412012096e-02 0.0000000000000000e+00  -5.9772340800061767e-03 1.0552300922192111e-02 0.0000000000000000e+00  -8.0349900296597231e-03 9.6515530775584651e-03 0.0000000000000000e+00  -9.8733595218906973e-03 8.5159465908885013e-03 0.0000000000000000e+00  -1.1454964673859949e-02 7.1824829291221156e-03 0.0000000000000000e+00  -1.2752244770666677e-02 5.6869594329304650e-03 0.0000000000000000e+00  -1.3745608675033572e-02 4.0620583883367927e-03 0.0000000000000000e+00  -1.4420296858784570e-02 2.3365121738912679e-03 0.0000000000000000e+00  -1.4763433994818234e-02 5.3591161902131828e-04 0.0000000000000000e+00  -1.4761752207304857e-02 -1.3150235201029709e-03 0.0000000000000000e+00  -1.4400561411676211e-02 -3.1889997042326285e-03 0.0000000000000000e+00  -1.3664517775181876e-02 -5.0520004893311972e-03 0.0000000000000000e+00  -1.2540713823883004e-02 -6.8592108480144296e-03 0.0000000000000000e+00  -1.1024162922279738e-02 -8.5522363582924855e-03 0.0000000000000000e+00  -9.1263964133299069e-03 -1.0059395738752737e-02 0.0000000000000000e+00  -6.8797269312693490e-03 -1.1298996915849338e-02 0.0000000000000000e+00  -4.3607051988102464e-03 -1.2138374832572288e-02 0.0000000000000000e+00  -1.6875080219780237e-03 -1.1797931201211465e-02 0.0000000000000000e+00  0.0000000000000000e+00 0.0000000000000000e+00 0.0000000000000000e+00  0.0000000000000000e+00 0.0000000000000000e+00 0.0000000000000000e+00  -1.6644127658062482e-03 1.3150320960404756e-02 0.0000000000000000e+00  -4.3028870594478564e-03 1.3593871949023012e-02 0.0000000000000000e+00  -6.8407998961412140e-03 1.2848069927041548e-02 0.0000000000000000e+00  -9.1759301337129336e-03 1.1732003845794840e-02 0.0000000000000000e+00  -1.1249440363951944e-02 1.0336104224453668e-02 0.0000000000000000e+00  -1.3023746100904043e-02 8.7108291553207543e-03 0.0000000000000000e+00  -1.4474957089201598e-02 6.9026235881227728e-03 0.0000000000000000e+00  -1.5589131369979883e-02 4.9510359081824011e-03 0.0000000000000000e+00  -1.6357100946940564e-02 2.8876208803593423e-03 0.0000000000000000e+00  -1.6769623556246276e-02 7.3723467517140275e-04 0.0000000000000000e+00  -1.6813463605871160e-02 -1.4785806743465484e-03 0.0000000000000000e+00  -1.6469068295796318e-02 -3.7364046080879320e-03 0.0000000000000000e+00  -1.5710620703429708e-02 -6.0043174362409560e-03 0.0000000000000000e+00  -1.4509537070805399e-02 -8.2346525932942404e-03 0.0000000000000000e+00  -1.2842127780810541e-02 -1.0357748187938099e-02 0.0000000000000000e+00  -1.0703168478092722e-02 -1.2279655560404274e-02 0.0000000000000000e+00  -8.1158052024433765e-03 -1.3885333688285477e-02 0.0000000000000000e+00  -5.1665907540061375e-03 -1.4990854475954858e-02 0.0000000000000000e+00  -2.0035592066670041e-03 -1.4610051735756018e-02 0.0000000000000000e+00  0.0000000000000000e+00 0.0000000000000000e+00 0.0000000000000000e+00  0.0000000000000000e+00 0.0000000000000000e+00 0.0000000000000000e+00  -1.9336919751743664e-03 1.5892566490729704e-02 0.0000000000000000e+00  -4.9908371777724597e-03 1.6404377173412435e-02 0.0000000000000000e+00  -7.9138883933268511e-03 1.5472033981466337e-02 0.0000000000000000e+00  -1.0581054553644989e-02 1.4092035309852369e-02 0.0000000000000000e+00  -1.2927245927421789e-02 1.2385058292995171e-02 0.0000000000000000e+00  -1.4917298619156916e-02 1.0420910869191979e-02 0.0000000000000000e+00  -1.6535512378167364e-02 8.2602911670238213e-03 0.0000000000000000e+00  -1.7778822668510663e-02 5.9506755706557083e-03 0.0000000000000000e+00  -1.8648629996163173e-02 3.5251080573986781e-03 0.0000000000000000e+00  -1.9143348713774849e-02 1.0042748492426863e-03 0.0000000000000000e+00  -1.9252222220660403e-02 -1.5987091228239617e-03 0.0000000000000000e+00  -1.8950919449186379e-02 -4.2710044196460637e-03 0.0000000000000000e+00  -1.8199876061835488e-02 -6.9902714969269043e-03 0.0000000000000000e+00  -1.6947136111334259e-02 -9.7127474100668441e-03 0.0000000000000000e+00  -1.5137587221570624e-02 -1.2360569002749351e-02 0.0000000000000000e+00  -1.2733486320910427e-02 -1.4812866507942189e-02 0.0000000000000000e+00  -9.7347447963342295e-03 -1.6906266360773255e-02 0.0000000000000000e+00  -6.2351743133853485e-03 -1.8379531401549343e-02 0.0000000000000000e+00  -2.4252247484841702e-03 -1.7979880478492180e-02 0.0000000000000000e+00  0.0000000000000000e+00 0.0000000000000000e+00 0.0000000000000000e+00  0.0000000000000000e+00 0.0000000000000000e+00 0.0000000000000000e+00  -2.2749904913989699e-03 1.9096347780459877e-02 0.0000000000000000e+00  -5.8569778964270265e-03 1.9668949626121843e-02 0.0000000000000000e+00  -9.2516398256247759e-03 1.8492659115509333e-02 0.0000000000000000e+00  -1.2311177791243796e-02 1.6778268287892792e-02 0.0000000000000000e+00  -1.4964732611418499e-02 1.4689726846072721e-02 0.0000000000000000e+00  -1.7184836065824216e-02 1.2325141585723700e-02 0.0000000000000000e+00  -1.8971724618893886e-02 9.7644371491628097e-03 0.0000000000000000e+00  -2.0341482692185508e-02 7.0641031523798782e-03 0.0000000000000000e+00  -2.1313650401401329e-02 4.2565036871536743e-03 0.0000000000000000e+00  -2.1900554450659481e-02 1.3533262347622357e-03 0.0000000000000000e+00  -2.2098390035408491e-02 -1.6479714608089628e-03 0.0000000000000000e+00  -2.1879969854122598e-02 -4.7549081655686434e-03 0.0000000000000000e+00  -2.1189929244664805e-02 -7.9671193055370296e-03 0.0000000000000000e+00  -1.9943654279450065e-02 -1.1258166414408957e-02 0.0000000000000000e+00  -1.8035007799976008e-02 -1.4551349407826956e-02 0.0000000000000000e+00  -1.5366172016675150e-02 -1.7697077762646306e-02 0.0000000000000000e+00  -1.1884729886807688e-02 -2.0464372302345064e-02 0.0000000000000000e+00  -7.6793225933671000e-03 -2.2471646097958434e-02 0.0000000000000000e+00  -3.0000423010569984e-03 -2.2102358859753948e-02 0.0000000000000000e+00  0.0000000000000000e+00 0.0000000000000000e+00 0.0000000000000000e+00  0.0000000000000000e+00 0.0000000000000000e+00 0.0000000000000000e+00  -2.7151394710070117e-03 2.2887384957350636e-02 0.0000000000000000e+00  -6.9629623029564972e-03 2.3499130239964468e-02 0.0000000000000000e+00  -1.0936559779057827e-02 2.1990040200681151e-02 0.0000000000000000e+00  -1.4453619317751378e-02 1.9836806798627322e-02 0.0000000000000000e+00  -1.7440672511080502e-02 1.7267372827075956e-02 0.0000000000000000e+00  -1.9888284238142578e-02 1.4421327178840841e-02 0.0000000000000000e+00  -2.1825634242837431e-02 1.1403971382082790e-02 0.0000000000000000e+00  -2.3300475361583493e-02 8.2811600836555782e-03 0.0000000000000000e+00  -2.4361184095330009e-02 5.0809234734271978e-03 0.0000000000000000e+00  -2.5042784374987109e-02 1.7995460223756386e-03 0.0000000000000000e+00  -2.5355646280026276e-02 -1.5902526850478163e-03 0.0000000000000000e+00  -2.5275638722781990e-02 -5.1295246827115113e-03 0.0000000000000000e+00  -2.4733114620882124e-02 -8.8582114293996213e-03 0.0000000000000000e+00  -2.3600916313365070e-02 -1.2788902570140318e-02 0.0000000000000000e+00  -2.1698246596760905e-02 -1.6869063836333013e-02 0.0000000000000000e+00  -1.8824406188683595e-02 -2.0938468381891395e-02 0.0000000000000000e+00  -1.4808976034374373e-02 -2.4682450358721592e-02 0.0000000000000000e+00  -9.6900343702319650e-03 -2.7512055742316164e-02 0.0000000000000000e+00  -3.8038916771817879e-03 -2.7267750850321300e-02 0.0000000000000000e+00  0.0000000000000000e+00 0.0000000000000000e+00 0.0000000000000000e+00  0.0000000000000000e+00 0.0000000000000000e+00 0.0000000000000000e+00  -3.2984193858275179e-03 2.7440336656547187e-02 0.0000000000000000e+00  -8.4072609013905227e-03 2.8041541303930783e-02 0.0000000000000000e+00  -1.3095440024416255e-02 2.6057831891234642e-02 0.0000000000000000e+00  -1.7136024177335632e-02 2.3307449081809824e-02 0.0000000000000000e+00  -2.0462973930308145e-02 2.0115645296454966e-02 0.0000000000000000e+00  -2.3105124515681204e-02 1.6681753414342058e-02 0.0000000000000000e+00  -2.5142095514407277e-02 1.3142278865557976e-02 0.0000000000000000e+00  -2.6671296362660545e-02 9.5700504351273873e-03 0.0000000000000000e+00  -2.7783625767470888e-02 5.9823408098779885e-03 0.0000000000000000e+00  -2.8547639288650773e-02 2.3518830262682336e-03 0.0000000000000000e+00  -2.8998453053524966e-02 -1.3836305583975808e-03 0.0000000000000000e+00  -2.9126102617875689e-02 -5.3127319686766183e-03 0.0000000000000000e+00  -2.8851545559944323e-02 -9.5340748538012519e-03 0.0000000000000000e+00  -2.8010363795795235e-02 -1.4133615815821732e-02 0.0000000000000000e+00  -2.6345693866144274e-02 -1.9159292005630314e-02 0.0000000000000000e+00  -2.3462710343780568e-02 -2.4511883923035382e-02 0.0000000000000000e+00  -1.8913179559225769e-02 -2.9733065113748645e-02 0.0000000000000000e+00  -1.2588484325902965e-02 -3.3842527558038557e-02 0.0000000000000000e+00  -4.9668399581813630e-03 -3.3878737393669860e-02 0.0000000000000000e+00  0.0000000000000000e+00 0.0000000000000000e+00 0.0000000000000000e+00  0.0000000000000000e+00 0.0000000000000000e+00 0.0000000000000000e+00  -4.1015719567819697e-03 3.3009815646927711e-02 0.0000000000000000e+00  -1.0353126343105644e-02 3.3495468928466207e-02 0.0000000000000000e+00  -1.5928509273516803e-02 3.0802576642372091e-02 0.0000000000000000e+00  -2.0547481268111425e-02 2.7210626966005250e-02 0.0000000000000000e+00  -2.4179066212490836e-02 2.3194782272381594e-02 0.0000000000000000e+00  -2.6930019521987855