<?xml version="1.0"?>
<VTKFile type="UnstructuredGrid"  version="0.1"  >
<UnstructuredGrid>
<Piece  NumberOfPoints="441" NumberOfCells="800">
<Points>
<DataArray  type="Float64"  NumberOfComponents="3"  format="ascii">0 0 0  0.05 0 0  0.1 0 0  0.15 0 0  0.2 0 0  0.25 0 0  0.3 0 0  0.35 0 0  0.4 0 0  0.45 0 0  0.5 0 0  0.55 0 0  0.6 0 0  0.65 0 0  0.7 0 0  0.75 0 0  0.8 0 0  0.85 0 0  0.9 0 0  0.95 0 0  1 0 0  0 0.05 0  0.05 0.05 0  0.1 0.05 0  0.15 0.05 0  0.2 0.05 0  0.25 0.05 0  0.3 0.05 0  0.35 0.05 0  0.4 0.05 0  0.45 0.05 0  0.5 0.05 0  0.55 0.05 0  0.6 0.05 0  0.65 0.05 0  0.7 0.05 0  0.75 0.05 0  0.8 0.05 0  0.85 0.05 0  0.9 0.05 0  0.95 0.05 0  1 0.05 0  0 0.1 0  0.05 0.1 0  0.1 0.1 0  0.15 0.1 0  0.2 0.1 0  0.25 0.1 0  0.3 0.1 0  0.35 0.1 0  0.4 0.1 0  0.45 0.1 0  0.5 0.1 0  0.55 0.1 0  0.6 0.1 0  0.65 0.1 0  0.7 0.1 0  0.75 0.1 0  0.8 0.1 0  0.85 0.1 0  0.9 0.1 0  0.95 0.1 0  1 0.1 0  0 0.15 0  0.05 0.15 0  0.1 0.15 0  0.15 0.15 0  0.2 0.15 0  0.25 0.15 0  0.3 0.15 0  0.35 0.15 0  0.4 0.15 0  0.45 0.15 0  0.5 0.15 0  0.55 0.15 0  0.6 0.15 0  0.65 0.15 0  0.7 0.15 0  0.75 0.15 0  0.8 0.15 0  0.85 0.15 0  0.9 0.15 0  0.95 0.15 0  1 0.15 0  0 0.2 0  0.05 0.2 0  0.1 0.2 0  0.15 0.2 0  0.2 0.2 0  0.25 0.2 0  0.3 0.2 0  0.35 0.2 0  0.4 0.2 0  0.45 0.2 0  0.5 0.2 0  0.55 0.2 0  0.6 0.2 0  0.65 0.2 0  0.7 0.2 0  0.75 0.2 0  0.8 0.2 0  0.85 0.2 0  0.9 0.2 0  0.95 0.2 0  1 0.2 0  0 0.25 0  0.05 0.25 0  0.1 0.25 0  0.15 0.25 0  0.2 0.25 0  0.25 0.25 0  0.3 0.25 0  0.35 0.25 0  0.4 0.25 0  0.45 0.25 0  0.5 0.25 0  0.55 0.25 0  0.6 0.25 0  0.65 0.25 0  0.7 0.25 0  0.75 0.25 0  0.8 0.25 0  0.85 0.25 0  0.9 0.25 0  0.95 0.25 0  1 0.25 0  0 0.3 0  0.05 0.3 0  0.1 0.3 0  0.15 0.3 0  0.2 0.3 0  0.25 0.3 0  0.3 0.3 0  0.35 0.3 0  0.4 0.3 0  0.45 0.3 0  0.5 0.3 0  0.55 0.3 0  0.6 0.3 0  0.65 0.3 0  0.7 0.3 0  0.75 0.3 0  0.8 0.3 0  0.85 0.3 0  0.9 0.3 0  0.95 0.3 0  1 0.3 0  0 0.35 0  0.05 0.35 0  0.1 0.35 0  0.15 0.35 0  0.2 0.35 0  0.25 0.35 0  0.3 0.35 0  0.35 0.35 0  0.4 0.35 0  0.45 0.35 0  0.5 0.35 0  0.55 0.35 0  0.6 0.35 0  0.65 0.35 0  0.7 0.35 0  0.75 0.35 0  0.8 0.35 0  0.85 0.35 0  0.9 0.35 0  0.95 0.35 0  1 0.35 0  0 0.4 0  0.05 0.4 0  0.1 0.4 0  0.15 0.4 0  0.2 0.4 0  0.25 0.4 0  0.3 0.4 0  0.35 0.4 0  0.4 0.4 0  0.45 0.4 0  0.5 0.4 0  0.55 0.4 0  0.6 0.4 0  0.65 0.4 0  0.7 0.4 0  0.75 0.4 0  0.8 0.4 0  0.85 0.4 0  0.9 0.4 0  0.95 0.4 0  1 0.4 0  0 0.45 0  0.05 0.45 0  0.1 0.45 0  0.15 0.45 0  0.2 0.45 0  0.25 0.45 0  0.3 0.45 0  0.35 0.45 0  0.4 0.45 0  0.45 0.45 0  0.5 0.45 0  0.55 0.45 0  0.6 0.45 0  0.65 0.45 0  0.7 0.45 0  0.75 0.45 0  0.8 0.45 0  0.85 0.45 0  0.9 0.45 0  0.95 0.45 0  1 0.45 0  0 0.5 0  0.05 0.5 0  0.1 0.5 0  0.15 0.5 0  0.2 0.5 0  0.25 0.5 0  0.3 0.5 0  0.35 0.5 0  0.4 0.5 0  0.45 0.5 0  0.5 0.5 0  0.55 0.5 0  0.6 0.5 0  0.65 0.5 0  0.7 0.5 0  0.75 0.5 0  0.8 0.5 0  0.85 0.5 0  0.9 0.5 0  0.95 0.5 0  1 0.5 0  0 0.55 0  0.05 0.55 0  0.1 0.55 0  0.15 0.55 0  0.2 0.55 0  0.25 0.55 0  0.3 0.55 0  0.35 0.55 0  0.4 0.55 0  0.45 0.55 0  0.5 0.55 0  0.55 0.55 0  0.6 0.55 0  0.65 0.55 0  0.7 0.55 0  0.75 0.55 0  0.8 0.55 0  0.85 0.55 0  0.9 0.55 0  0.95 0.55 0  1 0.55 0  0 0.6 0  0.05 0.6 0  0.1 0.6 0  0.15 0.6 0  0.2 0.6 0  0.25 0.6 0  0.3 0.6 0  0.35 0.6 0  0.4 0.6 0  0.45 0.6 0  0.5 0.6 0  0.55 0.6 0  0.6 0.6 0  0.65 0.6 0  0.7 0.6 0  0.75 0.6 0  0.8 0.6 0  0.85 0.6 0  0.9 0.6 0  0.95 0.6 0  1 0.6 0  0 0.65 0  0.05 0.65 0  0.1 0.65 0  0.15 0.65 0  0.2 0.65 0  0.25 0.65 0  0.3 0.65 0  0.35 0.65 0  0.4 0.65 0  0.45 0.65 0  0.5 0.65 0  0.55 0.65 0  0.6 0.65 0  0.65 0.65 0  0.7 0.65 0  0.75 0.65 0  0.8 0.65 0  0.85 0.65 0  0.9 0.65 0  0.95 0.65 0  1 0.65 0  0 0.7 0  0.05 0.7 0  0.1 0.7 0  0.15 0.7 0  0.2 0.7 0  0.25 0.7 0  0.3 0.7 0  0.35 0.7 0  0.4 0.7 0  0.45 0.7 0  0.5 0.7 0  0.55 0.7 0  0.6 0.7 0  0.65 0.7 0  0.7 0.7 0  0.75 0.7 0  0.8 0.7 0  0.85 0.7 0  0.9 0.7 0  0.95 0.7 0  1 0.7 0  0 0.75 0  0.05 0.75 0  0.1 0.75 0  0.15 0.75 0  0.2 0.75 0  0.25 0.75 0  0.3 0.75 0  0.35 0.75 0  0.4 0.75 0  0.45 0.75 0  0.5 0.75 0  0.55 0.75 0  0.6 0.75 0  0.65 0.75 0  0.7 0.75 0  0.75 0.75 0  0.8 0.75 0  0.85 0.75 0  0.9 0.75 0  0.95 0.75 0  1 0.75 0  0 0.8 0  0.05 0.8 0  0.1 0.8 0  0.15 0.8 0  0.2 0.8 0  0.25 0.8 0  0.3 0.8 0  0.35 0.8 0  0.4 0.8 0  0.45 0.8 0  0.5 0.8 0  0.55 0.8 0  0.6 0.8 0  0.65 0.8 0  0.7 0.8 0  0.75 0.8 0  0.8 0.8 0  0.85 0.8 0  0.9 0.8 0  0.95 0.8 0  1 0.8 0  0 0.85 0  0.05 0.85 0  0.1 0.85 0  0.15 0.85 0  0.2 0.85 0  0.25 0.85 0  0.3 0.85 0  0.35 0.85 0  0.4 0.85 0  0.45 0.85 0  0.5 0.85 0  0.55 0.85 0  0.6 0.85 0  0.65 0.85 0  0.7 0.85 0  0.75 0.85 0  0.8 0.85 0  0.85 0.85 0  0.9 0.85 0  0.95 0.85 0  1 0.85 0  0 0.9 0  0.05 0.9 0  0.1 0.9 0  0.15 0.9 0  0.2 0.9 0  0.25 0.9 0  0.3 0.9 0  0.35 0.9 0  0.4 0.9 0  0.45 0.9 0  0.5 0.9 0  0.55 0.9 0  0.6 0.9 0  0.65 0.9 0  0.7 0.9 0  0.75 0.9 0  0.8 0.9 0  0.85 0.9 0  0.9 0.9 0  0.95 0.9 0  1 0.9 0  0 0.95 0  0.05 0.95 0  0.1 0.95 0  0.15 0.95 0  0.2 0.95 0  0.25 0.95 0  0.3 0.95 0  0.35 0.95 0  0.4 0.95 0  0.45 0.95 0  0.5 0.95 0  0.55 0.95 0  0.6 0.95 0  0.65 0.95 0  0.7 0.95 0  0.75 0.95 0  0.8 0.95 0  0.85 0.95 0  0.9 0.95 0  0.95 0.95 0  1 0.95 0  0 1 0  0.05 1 0  0.1 1 0  0.15 1 0  0.2 1 0  0.25 1 0  0.3 1 0  0.35 1 0  0.4 1 0  0.45 1 0  0.5 1 0  0.55 1 0  0.6 1 0  0.65 1 0  0.7 1 0  0.75 1 0  0.8 1 0  0.85 1 0  0.9 1 0  0.95 1 0  1 1 0  </DataArray>
</Points>
<Cells>
[...]
<PointData  Vectors="f_137"> 
<DataArray  type="Float64"  Name="f_137"  NumberOfComponents="3" format="ascii">0.0000000000000000e+00 0.0000000000000000e+00 0.0000000000000000e+00  0.0000000000000000e+00 0.0000000000000000e+00 0.0000000000000000e+00  0.0000000000000000e+00 0.0000000000000000e+00 0.0000000000000000e+00  0.0000000000000000e+00 0.0000000000000000e+00 0.0000000000000000e+00  0.0000000000000000e+00 0.0000000000000000e+00 0.0000000000000000e+00  0.0000000000000000e+00 0.0000000000000000e+00 0.0000000000000000e+00  0.0000000000000000e+00 0.0000000000000000e+00 0.0000000000000000e+00  0.0000000000000000e+00 0.0000000000000000e+00 0.0000000000000000e+00  0.0000000000000000e+00 0.0000000000000000e+00 0.0000000000000000e+00  0.0000000000000000e+00 0.0000000000000000e+00 0.0000000000000000e+00  0.0000000000000000e+00 0.0000000000000000e+00 0.0000000000000000e+00  0.0000000000000000e+00 0.0000000000000000e+00 0.0000000000000000e+00  0.0000000000000000e+00 0.0000000000000000e+00 0.0000000000000000e+00  0.0000000000000000e+00 0.0000000000000000e+00 0.0000000000000000e+00  0.0000000000000000e+00 0.0000000000000000e+00 0.0000000000000000e+00  0.0000000000000000e+00 0.0000000000000000e+00 0.0000000000000000e+00  0.0000000000000000e+00 0.0000000000000000e+00 0.0000000000000000e+00  0.0000000000000000e+00 0.0000000000000000e+00 0.0000000000000000e+00  0.0000000000000000e+00 0.0000000000000000e+00 0.0000000000000000e+00  0.0000000000000000e+00 0.0000000000000000e+00 0.0000000000000000e+00  0.0000000000000000e+00 0.0000000000000000e+00 0.0000000000000000e+00  0.0000000000000000e+00 0.0000000000000000e+00 0.0000000000000000e+00  -8.3353897943379144e-04 8.2535994155609417e-04 0.0000000000000000e+00  -2.1816314480501706e-03 8.6953995109101292e-04 0.0000000000000000e+00  -3.4967146597265708e-03 8.2119529325321917e-04 0.0000000000000000e+00  -4.7210220368076733e-03 7.5397147867556629e-04 0.0000000000000000e+00  -5.8251744804145317e-03 6.6756915203929144e-04 0.0000000000000000e+00  -6.7803885085503416e-03 5.6409273529501279e-04 0.0000000000000000e+00  -7.5622889504792998e-03 4.4583426367870923e-04 0.0000000000000000e+00  -8.1503331207312315e-03 3.1530944647910184e-04 0.0000000000000000e+00  -8.5282048585042739e-03 1.7524982803740277e-04 0.0000000000000000e+00  -8.6840821596804296e-03 2.8608687628905921e-05 0.0000000000000000e+00  -8.6109372161993353e-03 -1.2138923012999682e-04 0.0000000000000000e+00  -8.3069215564764327e-03 -2.7118733744037842e-04 0.0000000000000000e+00  -7.7758318338863892e-03 -4.1685654298235359e-04 0.0000000000000000e+00  -7.0276196426280173e-03 -5.5410986568414427e-04 0.0000000000000000e+00  -6.0787930729421825e-03 -6.7839737183985173e-04 0.0000000000000000e+00  -4.9526740150644538e-03 -7.8519604039407529e-04 0.0000000000000000e+00  -3.6790579464582142e-03 -8.6987491899733740e-04 0.0000000000000000e+00  -2.2991213690683825e-03 -9.2217038000003452e-04 0.0000000000000000e+00  -8.6529766981029513e-04 -8.6361896565933410e-04 0.0000000000000000e+00  0.0000000000000000e+00 0.0000000000000000e+00 0.0000000000000000e+00  0.0000000000000000e+00 0.0000000000000000e+00 0.0000000000000000e+00  -9.2986051502697465e-04 2.2063542739232424e-03 0.0000000000000000e+00  -2.4141757366720833e-03 2.3061618043894293e-03 0.0000000000000000e+00  -3.8587996849747501e-03 2.1865933309280967e-03 0.0000000000000000e+00  -5.2069644835065479e-03 2.0062863247558875e-03 0.0000000000000000e+00  -6.4215173762589674e-03 1.7751598842429659e-03 0.0000000000000000e+00  -7.4718713011590167e-03 1.4989333318263008e-03 0.0000000000000000e+00  -8.3315176318976471e-03 1.1839526126770031e-03 0.0000000000000000e+00  -8.9783016869538785e-03 8.3712053073636513e-04 0.0000000000000000e+00  -9.3946995564760851e-03 4.6577586040297427e-04 0.0000000000000000e+00  -9.5679726100418271e-03 7.7726313529988316e-05 0.0000000000000000e+00  -9.4904178049141814e-03 -3.1861656953068149e-04 0.0000000000000000e+00  -9.1597495459318223e-03 -7.1405946726991977e-04 0.0000000000000000e+00  -8.5796297551512801e-03 -1.0984876513901894e-03 0.0000000000000000e+00  -7.7603030259233543e-03 -1.4608583982314198e-03 0.0000000000000000e+00  -6.7191435292689883e-03 -1.7894161678833527e-03 0.0000000000000000e+00  -5.4815069184520580e-03 -2.0722088815745502e-03 0.0000000000000000e+00  -4.0792327998896601e-03 -2.2975253812042079e-03 0.0000000000000000e+00  -2.5573598105887124e-03 -2.4403649316216509e-03 0.0000000000000000e+00  -9.8251626009919447e-04 -2.3357385249737571e-03 0.0000000000000000e+00  0.0000000000000000e+00 0.0000000000000000e+00 0.0000000000000000e+00  0.0000000000000000e+00 0.0000000000000000e+00 0.0000000000000000e+00  -9.7695853913986642e-04 3.6684886426143534e-03 0.0000000000000000e+00  -2.5466396792143296e-03 3.8244449058815132e-03 0.0000000000000000e+00  -4.0729030703016787e-03 3.6266509113287134e-03 0.0000000000000000e+00  -5.4971398970011260e-03 3.3262796151276447e-03 0.0000000000000000e+00  -6.7800477987481336e-03 2.9418705580916927e-03 0.0000000000000000e+00  -7.8901403360708972e-03 2.4831559431580975e-03 0.0000000000000000e+00  -8.7999394673806321e-03 1.9609728261691583e-03 0.0000000000000000e+00  -9.4866940291369085e-03 1.3868199701585371e-03 0.0000000000000000e+00  -9.9323163099262063e-03 7.7271331468093383e-04 0.0000000000000000e+00  -1.0123388961799580e-02 1.3127256929509860e-04 0.0000000000000000e+00  -1.0051301038038526e-02 -5.2400283963015769e-04 0.0000000000000000e+00  -9.7126103753168713e-03 -1.1783536968703193e-03 0.0000000000000000e+00  -9.1096816964024666e-03 -1.8154233654308048e-03 0.0000000000000000e+00  -8.2515690726663558e-03 -2.4171368297570472e-03 0.0000000000000000e+00  -7.1549346620381005e-03 -2.9639647523788319e-03 0.0000000000000000e+00  -5.8452778235185245e-03 -3.4357394843818074e-03 0.0000000000000000e+00  -4.3555638479845791e-03 -3.8122649925255484e-03 0.0000000000000000e+00  -2.7344318387159438e-03 -4.0555096382192471e-03 0.0000000000000000e+00  -1.0506959944827318e-03 -3.8938967382041519e-03 0.0000000000000000e+00  0.0000000000000000e+00 0.0000000000000000e+00 0.0000000000000000e+00  0.0000000000000000e+00 0.0000000000000000e+00 0.0000000000000000e+00  -1.0516868524401326e-03 5.2243773025341597e-03 0.0000000000000000e+00  -2.7405366831346912e-03 5.4440240552319627e-03 0.0000000000000000e+00  -4.3824986431667172e-03 5.1627646755525369e-03 0.0000000000000000e+00  -5.9136513193064301e-03 4.7341784627752750e-03 0.0000000000000000e+00  -7.2922223118899255e-03 4.1864582956515342e-03 0.0000000000000000e+00  -8.4852949085233182e-03 3.5341709948400165e-03 0.0000000000000000e+00  -9.4644744541362916e-03 2.7929771015270536e-03 0.0000000000000000e+00  -1.0206494528284725e-02 1.9791354769665074e-03 0.0000000000000000e+00  -1.0692781620762771e-02 1.1092687054273141e-03 0.0000000000000000e+00  -1.0909171583821866e-02 2.0052655741726683e-04 0.0000000000000000e+00  -1.0845818007495291e-02 -7.2889746566098422e-04 0.0000000000000000e+00  -1.0497484751310014e-02 -1.6590348396037227e-03 0.0000000000000000e+00  -9.8643272123861980e-03 -2.5674239028867412e-03 0.0000000000000000e+00  -8.9531625588384865e-03 -3.4286920319304861e-03 0.0000000000000000e+00  -7.7789724348037272e-03 -4.2147386943503819e-03 0.0000000000000000e+00  -6.3669402559168786e-03 -4.8958132714323520e-03 0.0000000000000000e+00  -4.7514065287315105e-03 -5.4417421959041647e-03 0.0000000000000000e+00  -2.9857817815879617e-03 -5.7983808563081829e-03 0.0000000000000000e+00  -1.1470427986522327e-03 -5.5783575870578745e-03 0.0000000000000000e+00  0.0000000000000000e+00 0.0000000000000000e+00 0.0000000000000000e+00  0.0000000000000000e+00 0.0000000000000000e+00 0.0000000000000000e+00  -1.1543108030056810e-03 6.9168878637154490e-03 0.0000000000000000e+00  -3.0069063445206565e-03 7.2038734715668571e-03 0.0000000000000000e+00  -4.8068224662347250e-03 6.8301121897331200e-03 0.0000000000000000e+00  -6.4829795176010166e-03 6.2608114898444174e-03 0.0000000000000000e+00  -7.9905409294543268e-03 5.5352541593452565e-03 0.0000000000000000e+00  -9.2947475279408324e-03 4.6736611945939564e-03 0.0000000000000000e+00  -1.0366437378056412e-02 3.6971724100464468e-03 0.0000000000000000e+00  -1.1182151700567671e-02 2.6270759064391932e-03 0.0000000000000000e+00  -1.1723171959043734e-02 1.4844332726860585e-03 0.0000000000000000e+00  -1.1974711255187464e-02 2.9038133009663875e-04 0.0000000000000000e+00  -1.1925415633015827e-02 -9.3296319731278176e-04 0.0000000000000000e+00  -1.1567476086184894e-02 -2.1611912947844302e-03 0.0000000000000000e+00  -1.0897553616976819e-02 -3.3662058395653193e-03 0.0000000000000000e+00  -9.9185939722620537e-03 -4.5151843515587120e-03 0.0000000000000000e+00  -8.6422567976890442e-03 -5.5704130921684185e-03 0.0000000000000000e+00  -7.0922967408302024e-03 -6.4905485106456400e-03 0.0000000000000000e+00  -5.3042874812384211e-03 -7.2325398626914847e-03 0.0000000000000000e+00  -3.3383917312098076e-03 -7.7220765922442914e-03 0.0000000000000000e+00  -1.2828388738519395e-03 -7.4413017857876971e-03 0.0000000000000000e+00  0.0000000000000000e+00 0.0000000000000000e+00 0.0000000000000000e+00  0.0000000000000000e+00 0.0000000000000000e+00 0.0000000000000000e+00  -1.2884180026537084e-03 8.7907169310536808e-03 0.0000000000000000e+00  -3.3546057317165238e-03 9.1502248087314188e-03 0.0000000000000000e+00  -5.3590369155881116e-03 8.6714909606496315e-03 0.0000000000000000e+00  -7.2215540819214824e-03 7.9439924111043177e-03 0.0000000000000000e+00  -8.8932775514154096e-03 7.0204219393266232e-03 0.0000000000000000e+00  -1.0337583358521241e-02 5.9282251837361787e-03 0.0000000000000000e+00  -1.1525107727369680e-02 4.6950815483232612e-03 0.0000000000000000e+00  -1.2433086307187603e-02 3.3477060979662829e-03 0.0000000000000000e+00  -1.3043535169350513e-02 1.9112920397507255e-03 0.0000000000000000e+00  -1.3341589098609101e-02 4.1002776831479653e-04 0.0000000000000000e+00  -1.3314309694235115e-02 -1.1314120497063708e-03 0.0000000000000000e+00  -1.2950403910473647e-02 -2.6856472444870272e-03 0.0000000000000000e+00  -1.2241212995767194e-02 -4.2200673331191686e-03 0.0000000000000000e+00  -1.1183214315480272e-02 -5.6946318302606878e-03 0.0000000000000000e+00  -9.7818242252577479e-03 -7.0608295212536681e-03 0.0000000000000000e+00  -8.0569606991183883e-03 -8.2628181380383255e-03 0.0000000000000000e+00  -6.0443894841776284e-03 -9.2401829699563214e-03 0.0000000000000000e+00  -3.8127358074586462e-03 -9.8920175547132106e-03 0.0000000000000000e+00  -1.4663479213347995e-03 -9.5486920048927920e-03 0.0000000000000000e+00  0.0000000000000000e+00 0.0000000000000000e+00 0.0000000000000000e+00  0.0000000000000000e+00 0.0000000000000000e+00 0.0000000000000000e+00  -1.4590789840972273e-03 1.0897923571044530e-02 0.0000000000000000e+00  -3.7962341306556485e-03 1.1335187067206319e-02 0.0000000000000000e+00  -6.0578469733274616e-03 1.0733436038826078e-02 0.0000000000000000e+00  -8.1519870561149003e-03 9.8232768708731173e-03 0.0000000000000000e+00  -1.0024814266285586e-02 8.6742874068184931e-03 0.0000000000000000e+00  -1.1638271193438063e-02 7.3235628247970037e-03 0.0000000000000000e+00  -1.2964109560482667e-02 5.8069545113939303e-03 0.0000000000000000e+00  -1.3982041086639078e-02 4.1571906490450094e-03 0.0000000000000000e+00  -1.4676569236105210e-02 2.4030720552960590e-03 0.0000000000000000e+00  -1.5034011170600877e-02 5.7030785550902109e-04 0.0000000000000000e+00  -1.5040186866380234e-02 -1.3161573452305177e-03 0.0000000000000000e+00  -1.4679373280159421e-02 -3.2286011874719353e-03 0.0000000000000000e+00  -1.3935103225464733e-02 -5.1322361345811736e-03 0.0000000000000000e+00  -1.2793377083731005e-02 -6.9809770001919777e-03 0.0000000000000000e+00  -1.1248355606564531e-02 -8.7145341875895441e-03 0.0000000000000000e+00  -9.3113790337581125e-03 -1.0258665124751130e-02 0.0000000000000000e+00  -7.0154618730885621e-03 -1.1528704284813148e-02 0.0000000000000000e+00  -4.4391955582230528e-03 -1.2386923065143572e-02 0.0000000000000000e+00  -1.7097328860981426e-03 -1.1982023067100002e-02 0.0000000000000000e+00  0.0000000000000000e+00 0.0000000000000000e+00 0.0000000000000000e+00  0.0000000000000000e+00 0.0000000000000000e+00 0.0000000000000000e+00  -1.6736962400722955e-03 1.3299739797290299e-02 0.0000000000000000e+00  -4.3500008505672882e-03 1.3819054374337215e-02 0.0000000000000000e+00  -6.9296553107497964e-03 1.3068341295944048e-02 0.0000000000000000e+00  -9.3053828492330997e-03 1.1941303161149283e-02 0.0000000000000000e+00  -1.1417558024785699e-02 1.0529755242844337e-02 0.0000000000000000e+00  -1.3227900028747781e-02 8.8842616914713967e-03 0.0000000000000000e+00  -1.4711822228730813e-02 7.0513211401934750e-03 0.0000000000000000e+00  -1.5854682011844503e-02 5.0705018235837470e-03 0.0000000000000000e+00  -1.6646563174041406e-02 2.9733628500064552e-03 0.0000000000000000e+00  -1.7077368537708543e-02 7.8476230534183704e-04 0.0000000000000000e+00  -1.7132821187604928e-02 -1.4737041231284588e-03 0.0000000000000000e+00  -1.6792062660095267e-02 -3.7783859923560315e-03 0.0000000000000000e+00  -1.6027673598835963e-02 -6.0967403887931936e-03 0.0000000000000000e+00  -1.4809276987467883e-02 -8.3797921476908548e-03 0.0000000000000000e+00  -1.3111476832435151e-02 -1.0555592037314411e-02 0.0000000000000000e+00  -1.0928095899216384e-02 -1.2526731116872860e-02 0.0000000000000000e+00  -8.2825942173762428e-03 -1.4173788240835481e-02 0.0000000000000000e+00  -5.2639551115126861e-03 -1.5305612512496470e-02 0.0000000000000000e+00  -2.0316567849510076e-03 -1.4845841656689323e-02 0.0000000000000000e+00  0.0000000000000000e+00 0.0000000000000000e+00 0.0000000000000000e+00  0.0000000000000000e+00 0.0000000000000000e+00 0.0000000000000000e+00  -1.9432994100176790e-03 1.6070968500808060e-02 0.0000000000000000e+00  -5.0425374714884886e-03 1.6673752218851097e-02 0.0000000000000000e+00  -8.0122188941642736e-03 1.5735995902481301e-02 0.0000000000000000e+00  -1.0724899232968606e-02 1.4343470449768718e-02 0.0000000000000000e+00  -1.3114658801203901e-02 1.2618563292226839e-02 0.0000000000000000e+00  -1.5145621479312137e-02 1.0631212796465558e-02 0.0000000000000000e+00  -1.6801395373409352e-02 8.4421867528870469e-03 0.0000000000000000e+00  -1.8078246731643609e-02 6.0989674539277889e-03 0.0000000000000000e+00  -1.8976877542516552e-02 3.6345317304189149e-03 0.0000000000000000e+00  -1.9494883972790238e-02 1.0694000915564641e-03 0.0000000000000000e+00  -1.9620426190807221e-02 -1.5835527676944074e-03 0.0000000000000000e+00  -1.9327629947053390e-02 -4.3116670685340534e-03 0.0000000000000000e+00  -1.8574761160292119e-02 -7.0924184981164644e-03 0.0000000000000000e+00  -1.7307095690371473e-02 -9.8810309729846346e-03 0.0000000000000000e+00  -1.5466395538133147e-02 -1.2597182864490767e-02 0.0000000000000000e+00  -1.3012427184873769e-02 -1.5115419739178976e-02 0.0000000000000000e+00  -9.9443843523918558e-03 -1.7265737983656087e-02 0.0000000000000000e+00  -6.3589085607210554e-03 -1.8776235302186882e-02 0.0000000000000000e+00  -2.4616182401685175e-03 -1.8280717999187679e-02 0.0000000000000000e+00  0.0000000000000000e+00 0.0000000000000000e+00 0.0000000000000000e+00  0.0000000000000000e+00 0.0000000000000000e+00 0.0000000000000000e+00  -2.2847587267059394e-03 1.9306626796928829e-02 0.0000000000000000e+00  -5.9137402809341811e-03 1.9987708526386871e-02 0.0000000000000000e+00  -9.3606616881437687e-03 1.8805586662785641e-02 0.0000000000000000e+00  -1.2471365697460310e-02 1.7077111287007889e-02 0.0000000000000000e+00  -1.5174106320411242e-02 1.4968325723035369e-02 0.0000000000000000e+00  -1.7440678848124624e-02 1.2577511629492111e-02 0.0000000000000000e+00  -1.9270639749437404e-02 9.9847170063513280e-03 0.0000000000000000e+00  -2.0679476711813430e-02 7.2464691977693410e-03 0.0000000000000000e+00  -2.1686173308076380e-02 4.3950254267422504e-03 0.0000000000000000e+00  -2.2302426901673233e-02 1.4417208117734974e-03 0.0000000000000000e+00  -2.2523491203446468e-02 -1.6166306125570472e-03 0.0000000000000000e+00  -2.2320562111040176e-02 -4.7884006428158708e-03 0.0000000000000000e+00  -2.1635658837247464e-02 -8.0740263990157039e-03 0.0000000000000000e+00  -2.0380179203495791e-02 -1.1447146646081817e-02 0.0000000000000000e+00  -1.8442408921653653e-02 -1.4828946203126308e-02 0.0000000000000000e+00  -1.5718992806095677e-02 -1.8063728482124276e-02 0.0000000000000000e+00  -1.2154525674481201e-02 -2.0910486901501248e-02 0.0000000000000000e+00  -7.8407516185736176e-03 -2.2971820615751926e-02 0.0000000000000000e+00  -3.0486359436250623e-03 -2.2487452770111865e-02 0.0000000000000000e+00  0.0000000000000000e+00 0.0000000000000000e+00 0.0000000000000000e+00  0.0000000000000000e+00 0.0000000000000000e+00 0.0000000000000000e+00  -2.7247958759303837e-03 2.3132741570711261e-02 0.0000000000000000e+00  -7.0252049159108708e-03 2.3873219290761142e-02 0.0000000000000000e+00  -1.1057480093857304e-02 2.2357968032878987e-02 0.0000000000000000e+00  -1.4632136694852910e-02 2.0189072813964846e-02 0.0000000000000000e+00  -1.7674737711927270e-02 1.7597012032203360e-02 0.0000000000000000e+00  -2.0175055285056278e-02 1.4721618022721115e-02 0.0000000000000000e+00  -2.2161581935681660e-02 1.1668435517868022e-02 0.0000000000000000e+00  -2.3681577150856271e-02 8.5034880913833610e-03 0.0000000000000000e+00  -2.4783119031086039e-02 5.2547660345874086e-03 0.0000000000000000e+00  -2.5501006036251120e-02 1.9180951747015927e-03 0.0000000000000000e+00  -2.5845121824622577e-02 -1.5348742255440707e-03 0.0000000000000000e+00  -2.5790231054709917e-02 -5.1471206928161194e-03 0.0000000000000000e+00  -2.5264150395636269e-02 -8.9613460931989887e-03 0.0000000000000000e+00  -2.4133895991473926e-02 -1.2992094149374241e-02 0.0000000000000000e+00  -2.2209392330277977e-02 -1.7185447036028100e-02 0.0000000000000000e+00  -1.9279798990926581e-02 -2.1375182211858652e-02 0.0000000000000000e+00  -1.5166319152636519e-02 -2.5234424061240688e-02 0.0000000000000000e+00  -9.9076912411406280e-03 -2.8148469205933939e-02 0.0000000000000000e+00  -3.8708597741397436e-03 -2.7767624292976311e-02 0.0000000000000000e+00  0.0000000000000000e+00 0.0000000000000000e+00 0.0000000000000000e+00  0.0000000000000000e+00 0.0000000000000000e+00 0.0000000000000000e+00  -3.3075619900217600e-03 2.7724299205952894e-02 0.0000000000000000e+00  -8.4753469991327730e-03 2.8477701993090857e-02 0.0000000000000000e+00  -1.3229464011175543e-02 2.6487605919403242e-02 0.0000000000000000e+00  -1.7334922576202290e-02 2.3719950550474867e-02 0.0000000000000000e+00  -2.0724594241388863e-02 2.0503007716016427e-02 0.0000000000000000e+00  -2.3426381985973337e-02 1.7036435769226844e-02 0.0000000000000000e+00  -2.5519130395613210e-02 1.3457200743375834e-02 0.0000000000000000e+00  -2.7099845973099324e-02 9.8386105467313818e-03 0.0000000000000000e+00  -2.8259491668482874e-02 6.1982025702424694e-03 0.0000000000000000e+00  -2.9067044278839868e-02 2.5083967678326889e-03 0.0000000000000000e+00  -2.9558200976334156e-02 -1.2946001042617621e-03 0.0000000000000000e+00  -2.9723575775941896e-02 -5.3026258279944109e-03 0.0000000000000000e+00  -2.9481297156320134e-02 -9.6185526933833098e-03 0.0000000000000000e+00  -2.8659824640395612e-02 -1.4331620815240705e-02 0.0000000000000000e+00  -2.6994104713119485e-02 -1.9497137225542260e-02 0.0000000000000000e+00  -2.4068421599305452e-02 -2.5023500080129425e-02 0.0000000000000000e+00  -1.9406386655907385e-02 -3.0431425444172863e-02 0.0000000000000000e+00  -1.2890242879278736e-02 -3.4675874725164833e-02 0.0000000000000000e+00  -5.0564384783976452e-03 -3.4532520963798934e-02 0.0000000000000000e+00  0.0000000000000000e+00 0.0000000000000000e+00 0.0000000000000000e+00  0.0000000000000000e+00 0.0000000000000000e+00 0.0000000000000000e+00  -4.1096801656312579e-03 3.3336275783824885e-02 0.0000000000000000e+00  -1.0427376967542621e-02 3.4001249763156161e-02 0.0000000000000000e+00  -1.6076827521999137e-02 3.1301924730599485e-02 0.0000000000000000e+00  -2.0768903683020035e-02 2.7691076378353868e-02 0.0000000000000000e+00  -2.4471354981819394e-02 2.3647383655303469e-02 0.0000000000000000e+00  -2.7289679075737875