<?xml version="1.0"?>
<VTKFile type="UnstructuredGrid"  version="0.1"  >
<UnstructuredGrid>
<Piece  NumberOfPoints="441" NumberOfCells="800">
<Points>
<DataArray  type="Float64"  NumberOfComponents="3"  format="ascii">0 0 0  0.05 0 0  0.1 0 0  0.15 0 0  0.2 0 0  0.25 0 0  0.3 0 0  0.35 0 0  0.4 0 0  0.45 0 0  0.5 0 0  0.55 0 0  0.6 0 0  0.65 0 0  0.7 0 0  0.75 0 0  0.8 0 0  0.85 0 0  0.9 0 0  0.95 0 0  1 0 0  0 0.05 0  0.05 0.05 0  0.1 0.05 0  0.15 0.05 0  0.2 0.05 0  0.25 0.05 0  0.3 0.05 0  0.35 0.05 0  0.4 0.05 0  0.45 0.05 0  0.5 0.05 0  0.55 0.05 0  0.6 0.05 0  0.65 0.05 0  0.7 0.05 0  0.75 0.05 0  0.8 0.05 0  0.85 0.05 0  0.9 0.05 0  0.95 0.05 0  1 0.05 0  0 0.1 0  0.05 0.1 0  0.1 0.1 0  0.15 0.1 0  0.2 0.1 0  0.25 0.1 0  0.3 0.1 0  0.35 0.1 0  0.4 0.1 0  0.45 0.1 0  0.5 0.1 0  0.55 0.1 0  0.6 0.1 0  0.65 0.1 0  0.7 0.1 0  0.75 0.1 0  0.8 0.1 0  0.85 0.1 0  0.9 0.1 0  0.95 0.1 0  1 0.1 0  0 0.15 0  0.05 0.15 0  0.1 0.15 0  0.15 0.15 0  0.2 0.15 0  0.25 0.15 0  0.3 0.15 0  0.35 0.15 0  0.4 0.15 0  0.45 0.15 0  0.5 0.15 0  0.55 0.15 0  0.6 0.15 0  0.65 0.15 0  0.7 0.15 0  0.75 0.15 0  0.8 0.15 0  0.85 0.15 0  0.9 0.15 0  0.95 0.15 0  1 0.15 0  0 0.2 0  0.05 0.2 0  0.1 0.2 0  0.15 0.2 0  0.2 0.2 0  0.25 0.2 0  0.3 0.2 0  0.35 0.2 0  0.4 0.2 0  0.45 0.2 0  0.5 0.2 0  0.55 0.2 0  0.6 0.2 0  0.65 0.2 0  0.7 0.2 0  0.75 0.2 0  0.8 0.2 0  0.85 0.2 0  0.9 0.2 0  0.95 0.2 0  1 0.2 0  0 0.25 0  0.05 0.25 0  0.1 0.25 0  0.15 0.25 0  0.2 0.25 0  0.25 0.25 0  0.3 0.25 0  0.35 0.25 0  0.4 0.25 0  0.45 0.25 0  0.5 0.25 0  0.55 0.25 0  0.6 0.25 0  0.65 0.25 0  0.7 0.25 0  0.75 0.25 0  0.8 0.25 0  0.85 0.25 0  0.9 0.25 0  0.95 0.25 0  1 0.25 0  0 0.3 0  0.05 0.3 0  0.1 0.3 0  0.15 0.3 0  0.2 0.3 0  0.25 0.3 0  0.3 0.3 0  0.35 0.3 0  0.4 0.3 0  0.45 0.3 0  0.5 0.3 0  0.55 0.3 0  0.6 0.3 0  0.65 0.3 0  0.7 0.3 0  0.75 0.3 0  0.8 0.3 0  0.85 0.3 0  0.9 0.3 0  0.95 0.3 0  1 0.3 0  0 0.35 0  0.05 0.35 0  0.1 0.35 0  0.15 0.35 0  0.2 0.35 0  0.25 0.35 0  0.3 0.35 0  0.35 0.35 0  0.4 0.35 0  0.45 0.35 0  0.5 0.35 0  0.55 0.35 0  0.6 0.35 0  0.65 0.35 0  0.7 0.35 0  0.75 0.35 0  0.8 0.35 0  0.85 0.35 0  0.9 0.35 0  0.95 0.35 0  1 0.35 0  0 0.4 0  0.05 0.4 0  0.1 0.4 0  0.15 0.4 0  0.2 0.4 0  0.25 0.4 0  0.3 0.4 0  0.35 0.4 0  0.4 0.4 0  0.45 0.4 0  0.5 0.4 0  0.55 0.4 0  0.6 0.4 0  0.65 0.4 0  0.7 0.4 0  0.75 0.4 0  0.8 0.4 0  0.85 0.4 0  0.9 0.4 0  0.95 0.4 0  1 0.4 0  0 0.45 0  0.05 0.45 0  0.1 0.45 0  0.15 0.45 0  0.2 0.45 0  0.25 0.45 0  0.3 0.45 0  0.35 0.45 0  0.4 0.45 0  0.45 0.45 0  0.5 0.45 0  0.55 0.45 0  0.6 0.45 0  0.65 0.45 0  0.7 0.45 0  0.75 0.45 0  0.8 0.45 0  0.85 0.45 0  0.9 0.45 0  0.95 0.45 0  1 0.45 0  0 0.5 0  0.05 0.5 0  0.1 0.5 0  0.15 0.5 0  0.2 0.5 0  0.25 0.5 0  0.3 0.5 0  0.35 0.5 0  0.4 0.5 0  0.45 0.5 0  0.5 0.5 0  0.55 0.5 0  0.6 0.5 0  0.65 0.5 0  0.7 0.5 0  0.75 0.5 0  0.8 0.5 0  0.85 0.5 0  0.9 0.5 0  0.95 0.5 0  1 0.5 0  0 0.55 0  0.05 0.55 0  0.1 0.55 0  0.15 0.55 0  0.2 0.55 0  0.25 0.55 0  0.3 0.55 0  0.35 0.55 0  0.4 0.55 0  0.45 0.55 0  0.5 0.55 0  0.55 0.55 0  0.6 0.55 0  0.65 0.55 0  0.7 0.55 0  0.75 0.55 0  0.8 0.55 0  0.85 0.55 0  0.9 0.55 0  0.95 0.55 0  1 0.55 0  0 0.6 0  0.05 0.6 0  0.1 0.6 0  0.15 0.6 0  0.2 0.6 0  0.25 0.6 0  0.3 0.6 0  0.35 0.6 0  0.4 0.6 0  0.45 0.6 0  0.5 0.6 0  0.55 0.6 0  0.6 0.6 0  0.65 0.6 0  0.7 0.6 0  0.75 0.6 0  0.8 0.6 0  0.85 0.6 0  0.9 0.6 0  0.95 0.6 0  1 0.6 0  0 0.65 0  0.05 0.65 0  0.1 0.65 0  0.15 0.65 0  0.2 0.65 0  0.25 0.65 0  0.3 0.65 0  0.35 0.65 0  0.4 0.65 0  0.45 0.65 0  0.5 0.65 0  0.55 0.65 0  0.6 0.65 0  0.65 0.65 0  0.7 0.65 0  0.75 0.65 0  0.8 0.65 0  0.85 0.65 0  0.9 0.65 0  0.95 0.65 0  1 0.65 0  0 0.7 0  0.05 0.7 0  0.1 0.7 0  0.15 0.7 0  0.2 0.7 0  0.25 0.7 0  0.3 0.7 0  0.35 0.7 0  0.4 0.7 0  0.45 0.7 0  0.5 0.7 0  0.55 0.7 0  0.6 0.7 0  0.65 0.7 0  0.7 0.7 0  0.75 0.7 0  0.8 0.7 0  0.85 0.7 0  0.9 0.7 0  0.95 0.7 0  1 0.7 0  0 0.75 0  0.05 0.75 0  0.1 0.75 0  0.15 0.75 0  0.2 0.75 0  0.25 0.75 0  0.3 0.75 0  0.35 0.75 0  0.4 0.75 0  0.45 0.75 0  0.5 0.75 0  0.55 0.75 0  0.6 0.75 0  0.65 0.75 0  0.7 0.75 0  0.75 0.75 0  0.8 0.75 0  0.85 0.75 0  0.9 0.75 0  0.95 0.75 0  1 0.75 0  0 0.8 0  0.05 0.8 0  0.1 0.8 0  0.15 0.8 0  0.2 0.8 0  0.25 0.8 0  0.3 0.8 0  0.35 0.8 0  0.4 0.8 0  0.45 0.8 0  0.5 0.8 0  0.55 0.8 0  0.6 0.8 0  0.65 0.8 0  0.7 0.8 0  0.75 0.8 0  0.8 0.8 0  0.85 0.8 0  0.9 0.8 0  0.95 0.8 0  1 0.8 0  0 0.85 0  0.05 0.85 0  0.1 0.85 0  0.15 0.85 0  0.2 0.85 0  0.25 0.85 0  0.3 0.85 0  0.35 0.85 0  0.4 0.85 0  0.45 0.85 0  0.5 0.85 0  0.55 0.85 0  0.6 0.85 0  0.65 0.85 0  0.7 0.85 0  0.75 0.85 0  0.8 0.85 0  0.85 0.85 0  0.9 0.85 0  0.95 0.85 0  1 0.85 0  0 0.9 0  0.05 0.9 0  0.1 0.9 0  0.15 0.9 0  0.2 0.9 0  0.25 0.9 0  0.3 0.9 0  0.35 0.9 0  0.4 0.9 0  0.45 0.9 0  0.5 0.9 0  0.55 0.9 0  0.6 0.9 0  0.65 0.9 0  0.7 0.9 0  0.75 0.9 0  0.8 0.9 0  0.85 0.9 0  0.9 0.9 0  0.95 0.9 0  1 0.9 0  0 0.95 0  0.05 0.95 0  0.1 0.95 0  0.15 0.95 0  0.2 0.95 0  0.25 0.95 0  0.3 0.95 0  0.35 0.95 0  0.4 0.95 0  0.45 0.95 0  0.5 0.95 0  0.55 0.95 0  0.6 0.95 0  0.65 0.95 0  0.7 0.95 0  0.75 0.95 0  0.8 0.95 0  0.85 0.95 0  0.9 0.95 0  0.95 0.95 0  1 0.95 0  0 1 0  0.05 1 0  0.1 1 0  0.15 1 0  0.2 1 0  0.25 1 0  0.3 1 0  0.35 1 0  0.4 1 0  0.45 1 0  0.5 1 0  0.55 1 0  0.6 1 0  0.65 1 0  0.7 1 0  0.75 1 0  0.8 1 0  0.85 1 0  0.9 1 0  0.95 1 0  1 1 0  </DataArray>
</Points>
<Cells>
[...]
<PointData  Vectors="f_137"> 
<DataArray  type="Float64"  Name="f_137"  NumberOfComponents="3" format="ascii">0.0000000000000000e+00 0.0000000000000000e+00 0.0000000000000000e+00  0.0000000000000000e+00 0.0000000000000000e+00 0.0000000000000000e+00  0.0000000000000000e+00 0.0000000000000000e+00 0.0000000000000000e+00  0.0000000000000000e+00 0.0000000000000000e+00 0.0000000000000000e+00  0.0000000000000000e+00 0.0000000000000000e+00 0.0000000000000000e+00  0.0000000000000000e+00 0.0000000000000000e+00 0.0000000000000000e+00  0.0000000000000000e+00 0.0000000000000000e+00 0.0000000000000000e+00  0.0000000000000000e+00 0.0000000000000000e+00 0.0000000000000000e+00  0.0000000000000000e+00 0.0000000000000000e+00 0.0000000000000000e+00  0.0000000000000000e+00 0.0000000000000000e+00 0.0000000000000000e+00  0.0000000000000000e+00 0.0000000000000000e+00 0.0000000000000000e+00  0.0000000000000000e+00 0.0000000000000000e+00 0.0000000000000000e+00  0.0000000000000000e+00 0.0000000000000000e+00 0.0000000000000000e+00  0.0000000000000000e+00 0.0000000000000000e+00 0.0000000000000000e+00  0.0000000000000000e+00 0.0000000000000000e+00 0.0000000000000000e+00  0.0000000000000000e+00 0.0000000000000000e+00 0.0000000000000000e+00  0.0000000000000000e+00 0.0000000000000000e+00 0.0000000000000000e+00  0.0000000000000000e+00 0.0000000000000000e+00 0.0000000000000000e+00  0.0000000000000000e+00 0.0000000000000000e+00 0.0000000000000000e+00  0.0000000000000000e+00 0.0000000000000000e+00 0.0000000000000000e+00  0.0000000000000000e+00 0.0000000000000000e+00 0.0000000000000000e+00  0.0000000000000000e+00 0.0000000000000000e+00 0.0000000000000000e+00  -8.3457500543479286e-04 8.2644196050533523e-04 0.0000000000000000e+00  -2.1969393644507089e-03 8.7670703675500595e-04 0.0000000000000000e+00  -3.5293791086706420e-03 8.2828123872995827e-04 0.0000000000000000e+00  -4.7702526801652739e-03 7.6091920226893661e-04 0.0000000000000000e+00  -5.8899959288724948e-03 6.7421685637721149e-04 0.0000000000000000e+00  -6.8593842132680417e-03 5.7025841596856821e-04 0.0000000000000000e+00  -7.6536373200332191e-03 4.5131060183742355e-04 0.0000000000000000e+00  -8.2517991852259151e-03 3.1987029068685413e-04 0.0000000000000000e+00  -8.6371483163424911e-03 1.7866074320909615e-04 0.0000000000000000e+00  -8.7974833121952246e-03 3.0640552900704466e-05 0.0000000000000000e+00  -8.7254451245419116e-03 -1.2094285869246019e-04 0.0000000000000000e+00  -8.4189296365702500e-03 -2.7248968994349665e-04 0.0000000000000000e+00  -7.8815843251340903e-03 -4.2000530022541185e-04 0.0000000000000000e+00  -7.1233512986848850e-03 -5.5911598570342709e-04 0.0000000000000000e+00  -6.1608937446693251e-03 -6.8516559087481680e-04 0.0000000000000000e+00  -5.0178874800442513e-03 -7.9351084278781977e-04 0.0000000000000000e+00  -3.7246500643195431e-03 -8.7943201061557849e-04 0.0000000000000000e+00  -2.3231914854650263e-03 -9.3219224488354658e-04 0.0000000000000000e+00  -8.6988807138189570e-04 -8.6831765679100273e-04 0.0000000000000000e+00  0.0000000000000000e+00 0.0000000000000000e+00 0.0000000000000000e+00  0.0000000000000000e+00 0.0000000000000000e+00 0.0000000000000000e+00  -9.3713383622015111e-04 2.2218984209329733e-03 0.0000000000000000e+00  -2.4448675388216599e-03 2.3361621751990507e-03 0.0000000000000000e+00  -3.9150602602841238e-03 2.2159744786987606e-03 0.0000000000000000e+00  -5.2875985772553782e-03 2.0342544903709982e-03 0.0000000000000000e+00  -6.5247187843661099e-03 1.8010030742117093e-03 0.0000000000000000e+00  -7.5952269960942410e-03 1.5219625467721286e-03 0.0000000000000000e+00  -8.4720637541394819e-03 1.2034616292957601e-03 0.0000000000000000e+00  -9.1325442756966108e-03 8.5240545113768210e-04 0.0000000000000000e+00  -9.5586540497543393e-03 4.7615938254191674e-04 0.0000000000000000e+00  -9.7372167970785906e-03 8.2590533319691666e-05 0.0000000000000000e+00  -9.6601662228247651e-03 -3.1978788002067345e-04 0.0000000000000000e+00  -9.3249553789271199e-03 -7.2162989826705882e-04 0.0000000000000000e+00  -8.7351198625700358e-03 -1.1126116199278147e-03 0.0000000000000000e+00  -7.9009514631760876e-03 -1.4814254750342803e-03 0.0000000000000000e+00  -6.8400706105684874e-03 -1.8160044251877428e-03 0.0000000000000000e+00  -5.5783308050162076e-03 -2.1040453699727709e-03 0.0000000000000000e+00  -4.1483125387349606e-03 -2.3334908954585360e-03 0.0000000000000000e+00  -2.5960712327336905e-03 -2.4785168968563340e-03 0.0000000000000000e+00  -9.9259471866966161e-04 -2.3601455497848861e-03 0.0000000000000000e+00  0.0000000000000000e+00 0.0000000000000000e+00 0.0000000000000000e+00  0.0000000000000000e+00 0.0000000000000000e+00 0.0000000000000000e+00  -9.8418960685326805e-04 3.7023344920149451e-03 0.0000000000000000e+00  -2.5783200792349522e-03 3.8808652491897047e-03 0.0000000000000000e+00  -4.1313177343406601e-03 3.6817442037131928e-03 0.0000000000000000e+00  -5.5811133792067367e-03 3.3784500334048278e-03 0.0000000000000000e+00  -6.8877586549894298e-03 2.9897953571563830e-03 0.0000000000000000e+00  -8.0191703003072018e-03 2.5255597583295586e-03 0.0000000000000000e+00  -8.9472904512340693e-03 1.9965921448184456e-03 0.0000000000000000e+00  -9.6488105293335725e-03 1.4144216196871082e-03 0.0000000000000000e+00  -1.0105113497477006e-02 7.9113071930277232e-04 0.0000000000000000e+00  -1.0302294171738167e-02 1.3945619030123870e-04 0.0000000000000000e+00  -1.0231316002679604e-02 -5.2691868989448748e-04 0.0000000000000000e+00  -9.8884027836310551e-03 -1.1929675235632703e-03 0.0000000000000000e+00  -9.2757156055465889e-03 -1.8419707021164291e-03 0.0000000000000000e+00  -8.4022842241228395e-03 -2.4553922396623445e-03 0.0000000000000000e+00  -7.2849659685015134e-03 -3.0131553539651354e-03 0.0000000000000000e+00  -5.9497469285628496e-03 -3.4944739696810903e-03 0.0000000000000000e+00  -4.4303574499568446e-03 -3.8785173522830813e-03 0.0000000000000000e+00  -2.7765064882772730e-03 -4.1259240640352888e-03 0.0000000000000000e+00  -1.0618730159435768e-03 -3.9418642005749653e-03 0.0000000000000000e+00  0.0000000000000000e+00 0.0000000000000000e+00 0.0000000000000000e+00  0.0000000000000000e+00 0.0000000000000000e+00 0.0000000000000000e+00  -1.0590567463365562e-03 5.2770035551207399e-03 0.0000000000000000e+00  -2.7737010177541609e-03 5.5281077070761997e-03 0.0000000000000000e+00  -4.4439646887859769e-03 5.2448456032716858e-03 0.0000000000000000e+00  -6.0022568346906075e-03 4.8118354579005183e-03 0.0000000000000000e+00  -7.4061496428758748e-03 4.2577507135023581e-03 0.0000000000000000e+00  -8.6221198012061875e-03 3.5972257665642213e-03 0.0000000000000000e+00  -9.6211689817780194e-03 2.8459496087110364e-03 0.0000000000000000e+00  -1.0379441045886102e-02 2.0202275576074115e-03 0.0000000000000000e+00  -1.0877783961436311e-02 1.1367744270366395e-03 0.0000000000000000e+00  -1.1101477850615724e-02 2.1289778092206346e-04 0.0000000000000000e+00  -1.1040160818706974e-02 -7.3296007802951802e-04 0.0000000000000000e+00  -1.0688151659774757e-02 -1.6804623683899901e-03 0.0000000000000000e+00  -1.0045277095405189e-02 -2.6066343960834694e-03 0.0000000000000000e+00  -9.1182073358856124e-03 -3.4854336563269269e-03 0.0000000000000000e+00  -7.9220206256483284e-03 -4.2879427986736709e-03 0.0000000000000000e+00  -6.4823477894812480e-03 -4.9834686684663903e-03 0.0000000000000000e+00  -4.8343284896060568e-03 -5.5408488051730924e-03 0.0000000000000000e+00  -3.0325841983762087e-03 -5.9040313126663239e-03 0.0000000000000000e+00  -1.1595684146274439e-03 -5.6522162345907833e-03 0.0000000000000000e+00  0.0000000000000000e+00 0.0000000000000000e+00 0.0000000000000000e+00  0.0000000000000000e+00 0.0000000000000000e+00 0.0000000000000000e+00  -1.1619113685517057e-03 6.9893507318141744e-03 0.0000000000000000e+00  -3.0421286147172843e-03 7.3174630649490494e-03 0.0000000000000000e+00  -4.8724892300262921e-03 6.9410448630061287e-03 0.0000000000000000e+00  -6.5779516777259026e-03 6.3658294324294802e-03 0.0000000000000000e+00  -8.1130082809351793e-03 5.6317881432708435e-03 0.0000000000000000e+00  -9.4422781788322200e-03 4.7592238705432546e-03 0.0000000000000000e+00  -1.0535970472941206e-02 3.7693077934451576e-03 0.0000000000000000e+00  -1.1369998537415367e-02 2.6833768133320904e-03 0.0000000000000000e+00  -1.1925007438440896e-02 1.5225901387328049e-03 0.0000000000000000e+00  -1.2185569493510901e-02 3.0825725760210207e-04 0.0000000000000000e+00  -1.2139695575688914e-02 -9.3722059505862943e-04 0.0000000000000000e+00  -1.1778974209379810e-02 -2.1889919171596156e-03 0.0000000000000000e+00  -1.1099548757498110e-02 -3.4183111373386203e-03 0.0000000000000000e+00  -1.0104019127450386e-02 -4.5914670592575087e-03 0.0000000000000000e+00  -8.8039675245103477e-03 -5.6696137257076914e-03 0.0000000000000000e+00  -7.2235064083851870e-03 -6.6100552628074963e-03 0.0000000000000000e+00  -5.3990400490549449e-03 -7.3682789697272913e-03 0.0000000000000000e+00  -3.3921488226770036e-03 -7.8673189036011643e-03 0.0000000000000000e+00  -1.2974217939507096e-03 -7.5444424662107672e-03 0.0000000000000000e+00  0.0000000000000000e+00 0.0000000000000000e+00 0.0000000000000000e+00  0.0000000000000000e+00 0.0000000000000000e+00 0.0000000000000000e+00  -1.2963169317765520e-03 8.8843832635202586e-03 0.0000000000000000e+00  -3.3924849447664975e-03 9.2957164719883693e-03 0.0000000000000000e+00  -5.4301009206900981e-03 8.8137320417120482e-03 0.0000000000000000e+00  -7.3246972752205484e-03 8.0788509556027153e-03 0.0000000000000000e+00  -9.0267052732090347e-03 7.1446826388040004e-03 0.0000000000000000e+00  -1.0498860204454808e-02 6.0387645248821510e-03 0.0000000000000000e+00  -1.1711146114837548e-02 4.7888021084722806e-03 0.0000000000000000e+00  -1.2640134024571465e-02 3.4215444887175359e-03 0.0000000000000000e+00  -1.3267145022892888e-02 1.9622619380971584e-03 0.0000000000000000e+00  -1.3576578933637890e-02 4.3529330278991413e-04 0.0000000000000000e+00  -1.3554716960602283e-02 -1.1344136674253122e-03 0.0000000000000000e+00  -1.3189454818503702e-02 -2.7190123850745155e-03 0.0000000000000000e+00  -1.2471343234182601e-02 -4.2851472572458952e-03 0.0000000000000000e+00  -1.1396200701547727e-02 -5.7916752267867314e-03 0.0000000000000000e+00  -9.9690638272683686e-03 -7.1885841566429612e-03 0.0000000000000000e+00  -8.2100161455048812e-03 -8.4181420362981155e-03 0.0000000000000000e+00  -6.1556488034584314e-03 -9.4178060833431543e-03 0.0000000000000000e+00  -3.8762800647406124e-03 -1.0082996352847233e-02 0.0000000000000000e+00  -1.4838728881187389e-03 -9.6860195230730178e-03 0.0000000000000000e+00  0.0000000000000000e+00 0.0000000000000000e+00 0.0000000000000000e+00  0.0000000000000000e+00 0.0000000000000000e+00 0.0000000000000000e+00  -1.4673018001443608e-03 1.1014505078140504e-02 0.0000000000000000e+00  -3.8373248735540503e-03 1.1515586143590845e-02 0.0000000000000000e+00  -6.1354811636820028e-03 1.0910055144536386e-02 0.0000000000000000e+00  -8.2651026211599584e-03 9.9910719927106244e-03 0.0000000000000000e+00  -1.0171639179172689e-02 8.8293822633585192e-03 0.0000000000000000e+00  -1.1816377832927428e-02 7.4621799039921288e-03 0.0000000000000000e+00  -1.3170400900549542e-02 5.9253297003756273e-03 0.0000000000000000e+00  -1.4212729834133150e-02 4.2515637981734439e-03 0.0000000000000000e+00  -1.4927127233686326e-02 2.4697103241920950e-03 0.0000000000000000e+00  -1.5299088283919128e-02 6.0555776212778032e-04 0.0000000000000000e+00  -1.5313495699363808e-02 -1.3157589938183375e-03 0.0000000000000000e+00  -1.4953557946469687e-02 -3.2661160155368781e-03 0.0000000000000000e+00  -1.4201639563833484e-02 -5.2099704042813041e-03 0.0000000000000000e+00  -1.3042598889660995e-02 -7.0999659215625318e-03 0.0000000000000000e+00  -1.1469696078569361e-02 -8.8738978545756918e-03 0.0000000000000000e+00  -9.4940426780221014e-03 -1.0454920872969854e-02 0.0000000000000000e+00  -7.1493645994122109e-03 -1.1755270735544613e-02 0.0000000000000000e+00  -4.5162970533899694e-03 -1.2632091764403303e-02 0.0000000000000000e+00  -1.7313961034260235e-03 -1.2160394684689210e-02 0.0000000000000000e+00  0.0000000000000000e+00 0.0000000000000000e+00 0.0000000000000000e+00  0.0000000000000000e+00 0.0000000000000000e+00 0.0000000000000000e+00  -1.6822134652981812e-03 1.3441264303732953e-02 0.0000000000000000e+00  -4.3948069636929824e-03 1.4037977157001030e-02 0.0000000000000000e+00  -7.0149952202540793e-03 1.3283038111032201e-02 0.0000000000000000e+00  -9.4302481675946782e-03 1.2145772086025951e-02 0.0000000000000000e+00  -1.1580207895913521e-02 1.0719443693527488e-02 0.0000000000000000e+00  -1.3425927421931143e-02 9.0547254829497353e-03 0.0000000000000000e+00  -1.4942145232656972e-02 7.1981171313473223e-03 0.0000000000000000e+00  -1.6113525626909486e-02 5.1891526778632289e-03 0.0000000000000000e+00  -1.6929398928697301e-02 3.0593428063168671e-03 0.0000000000000000e+00  -1.7378795348468486e-02 8.3349706594891212e-04 0.0000000000000000e+00  -1.7446366142278718e-02 -1.4667818686868834e-03 0.0000000000000000e+00  -1.7109902641177226e-02 -3.8176540404980374e-03 0.0000000000000000e+00  -1.6340321965677911e-02 -6.1859805430365964e-03 0.0000000000000000e+00  -1.5105379565849631e-02 -8.5214802727732568e-03 0.0000000000000000e+00  -1.3377896572870302e-02 -1.0749888409971802e-02 0.0000000000000000e+00  -1.1150681430600612e-02 -1.2770272421084992e-02 0.0000000000000000e+00  -8.4475165429350411e-03 -1.4458651819242623e-02 0.0000000000000000e+00  -5.3598335358132588e-03 -1.5616534200039979e-02 0.0000000000000000e+00  -2.0591244661749414e-03 -1.5074774784084713e-02 0.0000000000000000e+00  0.0000000000000000e+00 0.0000000000000000e+00 0.0000000000000000e+00  0.0000000000000000e+00 0.0000000000000000e+00 0.0000000000000000e+00  -1.9520111209496433e-03 1.6239751472430081e-02 0.0000000000000000e+00  -5.0915003030645488e-03 1.6935441902122296e-02 0.0000000000000000e+00  -8.1063541309767621e-03 1.5993114784632220e-02 0.0000000000000000e+00  -1.0863260859138919e-02 1.4589001855696483e-02 0.0000000000000000e+00  -1.3295541563933927e-02 1.2847264104495975e-02 0.0000000000000000e+00  -1.5366645714838988e-02 1.0837966978678237e-02 0.0000000000000000e+00  -1.7059514656527618e-02 8.6218798265570301e-03 0.0000000000000000e+00  -1.8369752874410339e-02 6.2464221203345814e-03 0.0000000000000000e+00  -1.9297356421275155e-02 3.7444376938305600e-03 0.0000000000000000e+00  -1.9839082844277899e-02 1.1362179586454622e-03 0.0000000000000000e+00  -1.9981976130560353e-02 -1.5656649337266635e-03 0.0000000000000000e+00  -1.9698566038939980e-02 -4.3487901631114063e-03 0.0000000000000000e+00  -1.8944866199544066e-02 -7.1904931143672631e-03 0.0000000000000000e+00  -1.7663278774713159e-02 -1.0045000128736265e-02 0.0000000000000000e+00  -1.5792319961309524e-02 -1.2829512751207741e-02 0.0000000000000000e+00  -1.3289150258736554e-02 -1.5413908662780175e-02 0.0000000000000000e+00  -1.0152227521043951e-02 -1.7621265067588605e-02 0.0000000000000000e+00  -6.4810697930142037e-03 -1.9168763438862521e-02 0.0000000000000000e+00  -2.4972814137552085e-03 -1.8573419906707467e-02 0.0000000000000000e+00  0.0000000000000000e+00 0.0000000000000000e+00 0.0000000000000000e+00  0.0000000000000000e+00 0.0000000000000000e+00 0.0000000000000000e+00  -2.2934746984199189e-03 1.9505239222679781e-02 0.0000000000000000e+00  -5.9672263445263813e-03 2.0297053096219601e-02 0.0000000000000000e+00  -9.4646286050413340e-03 1.9110133838580068e-02 0.0000000000000000e+00  -1.2624935491772366e-02 1.7368759419035859e-02 0.0000000000000000e+00  -1.5375605563255854e-02 1.5241122902948268e-02 0.0000000000000000e+00  -1.7687744584164531e-02 1.2825666740590973e-02 0.0000000000000000e+00  -1.9560256220138714e-02 1.0202473634279480e-02 0.0000000000000000e+00  -2.1008036097870577e-02 7.4280222970480210e-03 0.0000000000000000e+00  -2.2049499518495823e-02 4.5343835899670799e-03 0.0000000000000000e+00  -2.2695693530966933e-02 1.5324638865452879e-03 0.0000000000000000e+00  -2.2940897524881831e-02 -1.5816435885500611e-03 0.0000000000000000e+00  -2.2754630362244382e-02 -4.8172380126117100e-03 0.0000000000000000e+00  -2.2076205368924195e-02 -8.1756406836285492e-03 0.0000000000000000e+00  -2.0812910032861450e-02 -1.1630663622730150e-02 0.0000000000000000e+00  -1.8847239260180525e-02 -1.5101412547140041e-02 0.0000000000000000e+00  -1.6070020217750430e-02 -1.8425888853679493e-02 0.0000000000000000e+00  -1.2422774064398933e-02 -2.1352492268222219e-02 0.0000000000000000e+00  -8.0005225275830601e-03 -2.3467600982121264e-02 0.0000000000000000e+00  -3.0963491939854076e-03 -2.2862871534941487e-02 0.0000000000000000e+00  0.0000000000000000e+00 0.0000000000000000e+00 0.0000000000000000e+00  0.0000000000000000e+00 0.0000000000000000e+00 0.0000000000000000e+00  -2.7332134240722200e-03 2.3363978982265322e-02 0.0000000000000000e+00  -7.0834955333607102e-03 2.4235775335203262e-02 0.0000000000000000e+00  -1.1172256034942691e-02 2.2715633047474586e-02 0.0000000000000000e+00  -1.4802594593575144e-02 2.0532576830705859e-02 0.0000000000000000e+00  -1.7899225635536458e-02 1.7919659505668119e-02 0.0000000000000000e+00  -2.0451186146526641e-02 1.5016923105787689e-02 0.0000000000000000e+00  -2.2486307526782028e-02 1.1930038296959353e-02 0.0000000000000000e+00  -2.4051351323971969e-02 8.7250894355844211e-03 0.0000000000000000e+00  -2.5194076574807350e-02 5.4299343090776922e-03 0.0000000000000000e+00  -2.5949033047971099e-02 2.0398593349319244e-03 0.0000000000000000e+00  -2.6325579172809855e-02 -1.4746275214259682e-03 0.0000000000000000e+00  -2.6297348163218628e-02 -5.1585369898301692e-03 0.0000000000000000e+00  -2.5789617475953520e-02 -9.0575774706138125e-03 0.0000000000000000e+00  -2.4663327852498289e-02 -1.3188458820675545e-02 0.0000000000000000e+00  -2.2718690989713127e-02 -1.7495698688727222e-02 0.0000000000000000e+00  -1.9734234113985540e-02 -2.1806653046924786e-02 0.0000000000000000e+00  -1.5522668517547796e-02 -2.5781739630221259e-02 0.0000000000000000e+00  -1.0123743143944324e-02 -2.8780341326973432e-02 0.0000000000000000e+00  -3.9369322233845051e-03 -2.8256419312917610e-02 0.0000000000000000e+00  0.0000000000000000e+00 0.0000000000000000e+00 0.0000000000000000e+00  0.0000000000000000e+00 0.0000000000000000e+00 0.0000000000000000e+00  -3.3152467332774886e-03 2.7991179122467996e-02 0.0000000000000000e+00  -8.5386313805308652e-03 2.8899707649960079e-02 0.0000000000000000e+00  -1.3355955688145103e-02 2.6904788374016657e-02 0.0000000000000000e+00  -1.7523921587352113e-02 2.4121773058543933e-02 0.0000000000000000e+00  -2.0974472866935538e-02 2.0881953965698013e-02 0.0000000000000000e+00  -2.3734649950772600e-02 1.7385245854076997e-02 0.0000000000000000e+00  -2.5882540066958365e-02 1.3768915741181480e-02 0.0000000000000000e+00  -2.7514720042427908e-02 1.0106613562632817e-02 0.0000000000000000e+00  -2.8722173880716864e-02 6.4160407516122911e-03 0.0000000000000000e+00  -2.9574251643685701e-02 2.6692422870264352e-03 0.0000000000000000e+00  -3.0107198831705245e-02 -1.1991326359004257e-03 0.0000000000000000e+00  -3.0312392435161355e-02 -5.2844404805576766e-03 0.0000000000000000e+00  -3.0105037573528750e-02 -9.6939029040252062e-03 0.0000000000000000e+00  -2.9305874638899228e-02 -1.4519693037783171e-02 0.0000000000000000e+00  -2.7641669224788556e-02 -1.9824564631971051e-02 0.0000000000000000e+00  -2.4675103142888861e-02 -2.5526500199161629e-02 0.0000000000000000e+00  -1.9900713863923288e-02 -3.1125565270853889e-02 0.0000000000000000e+00  -1.3190822030774667e-02 -3.5508463092643085e-02 0.0000000000000000e+00  -5.1448209685095543e-03 -3.5175613192058558e-02 0.0000000000000000e+00  0.0000000000000000e+00 0.0000000000000000e+00 0.0000000000000000e+00  0.0000000000000000e+00 0.0000000000000000e+00 0.0000000000000000e+00  -4.1160777119576613e-03 3.3642052737631975e-02 0.0000000000000000e+00  -1.0495749717612021e-02 3.4489592557000855e-02 0.0000000000000000e+00  -1.6215828233925700e-02 3.1785769240279191e-02 0.0000000000000000e+00  -2.0978055672928941e-02 2.8158486382497586e-02 0.0000000000000000e+00  -2.4749130983786973e-02 2.4089865002242101e-02 0.0000000000000000e+00  -2.7633377787946476