<?xml version="1.0"?>
<VTKFile type="UnstructuredGrid"  version="0.1"  >
<UnstructuredGrid>
<Piece  NumberOfPoints="441" NumberOfCells="800">
<Points>
<DataArray  type="Float64"  NumberOfComponents="3"  format="ascii">0 0 0  0.05 0 0  0.1 0 0  0.15 0 0  0.2 0 0  0.25 0 0  0.3 0 0  0.35 0 0  0.4 0 0  0.45 0 0  0.5 0 0  0.55 0 0  0.6 0 0  0.65 0 0  0.7 0 0  0.75 0 0  0.8 0 0  0.85 0 0  0.9 0 0  0.95 0 0  1 0 0  0 0.05 0  0.05 0.05 0  0.1 0.05 0  0.15 0.05 0  0.2 0.05 0  0.25 0.05 0  0.3 0.05 0  0.35 0.05 0  0.4 0.05 0  0.45 0.05 0  0.5 0.05 0  0.55 0.05 0  0.6 0.05 0  0.65 0.05 0  0.7 0.05 0  0.75 0.05 0  0.8 0.05 0  0.85 0.05 0  0.9 0.05 0  0.95 0.05 0  1 0.05 0  0 0.1 0  0.05 0.1 0  0.1 0.1 0  0.15 0.1 0  0.2 0.1 0  0.25 0.1 0  0.3 0.1 0  0.35 0.1 0  0.4 0.1 0  0.45 0.1 0  0.5 0.1 0  0.55 0.1 0  0.6 0.1 0  0.65 0.1 0  0.7 0.1 0  0.75 0.1 0  0.8 0.1 0  0.85 0.1 0  0.9 0.1 0  0.95 0.1 0  1 0.1 0  0 0.15 0  0.05 0.15 0  0.1 0.15 0  0.15 0.15 0  0.2 0.15 0  0.25 0.15 0  0.3 0.15 0  0.35 0.15 0  0.4 0.15 0  0.45 0.15 0  0.5 0.15 0  0.55 0.15 0  0.6 0.15 0  0.65 0.15 0  0.7 0.15 0  0.75 0.15 0  0.8 0.15 0  0.85 0.15 0  0.9 0.15 0  0.95 0.15 0  1 0.15 0  0 0.2 0  0.05 0.2 0  0.1 0.2 0  0.15 0.2 0  0.2 0.2 0  0.25 0.2 0  0.3 0.2 0  0.35 0.2 0  0.4 0.2 0  0.45 0.2 0  0.5 0.2 0  0.55 0.2 0  0.6 0.2 0  0.65 0.2 0  0.7 0.2 0  0.75 0.2 0  0.8 0.2 0  0.85 0.2 0  0.9 0.2 0  0.95 0.2 0  1 0.2 0  0 0.25 0  0.05 0.25 0  0.1 0.25 0  0.15 0.25 0  0.2 0.25 0  0.25 0.25 0  0.3 0.25 0  0.35 0.25 0  0.4 0.25 0  0.45 0.25 0  0.5 0.25 0  0.55 0.25 0  0.6 0.25 0  0.65 0.25 0  0.7 0.25 0  0.75 0.25 0  0.8 0.25 0  0.85 0.25 0  0.9 0.25 0  0.95 0.25 0  1 0.25 0  0 0.3 0  0.05 0.3 0  0.1 0.3 0  0.15 0.3 0  0.2 0.3 0  0.25 0.3 0  0.3 0.3 0  0.35 0.3 0  0.4 0.3 0  0.45 0.3 0  0.5 0.3 0  0.55 0.3 0  0.6 0.3 0  0.65 0.3 0  0.7 0.3 0  0.75 0.3 0  0.8 0.3 0  0.85 0.3 0  0.9 0.3 0  0.95 0.3 0  1 0.3 0  0 0.35 0  0.05 0.35 0  0.1 0.35 0  0.15 0.35 0  0.2 0.35 0  0.25 0.35 0  0.3 0.35 0  0.35 0.35 0  0.4 0.35 0  0.45 0.35 0  0.5 0.35 0  0.55 0.35 0  0.6 0.35 0  0.65 0.35 0  0.7 0.35 0  0.75 0.35 0  0.8 0.35 0  0.85 0.35 0  0.9 0.35 0  0.95 0.35 0  1 0.35 0  0 0.4 0  0.05 0.4 0  0.1 0.4 0  0.15 0.4 0  0.2 0.4 0  0.25 0.4 0  0.3 0.4 0  0.35 0.4 0  0.4 0.4 0  0.45 0.4 0  0.5 0.4 0  0.55 0.4 0  0.6 0.4 0  0.65 0.4 0  0.7 0.4 0  0.75 0.4 0  0.8 0.4 0  0.85 0.4 0  0.9 0.4 0  0.95 0.4 0  1 0.4 0  0 0.45 0  0.05 0.45 0  0.1 0.45 0  0.15 0.45 0  0.2 0.45 0  0.25 0.45 0  0.3 0.45 0  0.35 0.45 0  0.4 0.45 0  0.45 0.45 0  0.5 0.45 0  0.55 0.45 0  0.6 0.45 0  0.65 0.45 0  0.7 0.45 0  0.75 0.45 0  0.8 0.45 0  0.85 0.45 0  0.9 0.45 0  0.95 0.45 0  1 0.45 0  0 0.5 0  0.05 0.5 0  0.1 0.5 0  0.15 0.5 0  0.2 0.5 0  0.25 0.5 0  0.3 0.5 0  0.35 0.5 0  0.4 0.5 0  0.45 0.5 0  0.5 0.5 0  0.55 0.5 0  0.6 0.5 0  0.65 0.5 0  0.7 0.5 0  0.75 0.5 0  0.8 0.5 0  0.85 0.5 0  0.9 0.5 0  0.95 0.5 0  1 0.5 0  0 0.55 0  0.05 0.55 0  0.1 0.55 0  0.15 0.55 0  0.2 0.55 0  0.25 0.55 0  0.3 0.55 0  0.35 0.55 0  0.4 0.55 0  0.45 0.55 0  0.5 0.55 0  0.55 0.55 0  0.6 0.55 0  0.65 0.55 0  0.7 0.55 0  0.75 0.55 0  0.8 0.55 0  0.85 0.55 0  0.9 0.55 0  0.95 0.55 0  1 0.55 0  0 0.6 0  0.05 0.6 0  0.1 0.6 0  0.15 0.6 0  0.2 0.6 0  0.25 0.6 0  0.3 0.6 0  0.35 0.6 0  0.4 0.6 0  0.45 0.6 0  0.5 0.6 0  0.55 0.6 0  0.6 0.6 0  0.65 0.6 0  0.7 0.6 0  0.75 0.6 0  0.8 0.6 0  0.85 0.6 0  0.9 0.6 0  0.95 0.6 0  1 0.6 0  0 0.65 0  0.05 0.65 0  0.1 0.65 0  0.15 0.65 0  0.2 0.65 0  0.25 0.65 0  0.3 0.65 0  0.35 0.65 0  0.4 0.65 0  0.45 0.65 0  0.5 0.65 0  0.55 0.65 0  0.6 0.65 0  0.65 0.65 0  0.7 0.65 0  0.75 0.65 0  0.8 0.65 0  0.85 0.65 0  0.9 0.65 0  0.95 0.65 0  1 0.65 0  0 0.7 0  0.05 0.7 0  0.1 0.7 0  0.15 0.7 0  0.2 0.7 0  0.25 0.7 0  0.3 0.7 0  0.35 0.7 0  0.4 0.7 0  0.45 0.7 0  0.5 0.7 0  0.55 0.7 0  0.6 0.7 0  0.65 0.7 0  0.7 0.7 0  0.75 0.7 0  0.8 0.7 0  0.85 0.7 0  0.9 0.7 0  0.95 0.7 0  1 0.7 0  0 0.75 0  0.05 0.75 0  0.1 0.75 0  0.15 0.75 0  0.2 0.75 0  0.25 0.75 0  0.3 0.75 0  0.35 0.75 0  0.4 0.75 0  0.45 0.75 0  0.5 0.75 0  0.55 0.75 0  0.6 0.75 0  0.65 0.75 0  0.7 0.75 0  0.75 0.75 0  0.8 0.75 0  0.85 0.75 0  0.9 0.75 0  0.95 0.75 0  1 0.75 0  0 0.8 0  0.05 0.8 0  0.1 0.8 0  0.15 0.8 0  0.2 0.8 0  0.25 0.8 0  0.3 0.8 0  0.35 0.8 0  0.4 0.8 0  0.45 0.8 0  0.5 0.8 0  0.55 0.8 0  0.6 0.8 0  0.65 0.8 0  0.7 0.8 0  0.75 0.8 0  0.8 0.8 0  0.85 0.8 0  0.9 0.8 0  0.95 0.8 0  1 0.8 0  0 0.85 0  0.05 0.85 0  0.1 0.85 0  0.15 0.85 0  0.2 0.85 0  0.25 0.85 0  0.3 0.85 0  0.35 0.85 0  0.4 0.85 0  0.45 0.85 0  0.5 0.85 0  0.55 0.85 0  0.6 0.85 0  0.65 0.85 0  0.7 0.85 0  0.75 0.85 0  0.8 0.85 0  0.85 0.85 0  0.9 0.85 0  0.95 0.85 0  1 0.85 0  0 0.9 0  0.05 0.9 0  0.1 0.9 0  0.15 0.9 0  0.2 0.9 0  0.25 0.9 0  0.3 0.9 0  0.35 0.9 0  0.4 0.9 0  0.45 0.9 0  0.5 0.9 0  0.55 0.9 0  0.6 0.9 0  0.65 0.9 0  0.7 0.9 0  0.75 0.9 0  0.8 0.9 0  0.85 0.9 0  0.9 0.9 0  0.95 0.9 0  1 0.9 0  0 0.95 0  0.05 0.95 0  0.1 0.95 0  0.15 0.95 0  0.2 0.95 0  0.25 0.95 0  0.3 0.95 0  0.35 0.95 0  0.4 0.95 0  0.45 0.95 0  0.5 0.95 0  0.55 0.95 0  0.6 0.95 0  0.65 0.95 0  0.7 0.95 0  0.75 0.95 0  0.8 0.95 0  0.85 0.95 0  0.9 0.95 0  0.95 0.95 0  1 0.95 0  0 1 0  0.05 1 0  0.1 1 0  0.15 1 0  0.2 1 0  0.25 1 0  0.3 1 0  0.35 1 0  0.4 1 0  0.45 1 0  0.5 1 0  0.55 1 0  0.6 1 0  0.65 1 0  0.7 1 0  0.75 1 0  0.8 1 0  0.85 1 0  0.9 1 0  0.95 1 0  1 1 0  </DataArray>
</Points>
<Cells>
[...]
<PointData  Vectors="f_137"> 
<DataArray  type="Float64"  Name="f_137"  NumberOfComponents="3" format="ascii">0.0000000000000000e+00 0.0000000000000000e+00 0.0000000000000000e+00  0.0000000000000000e+00 0.0000000000000000e+00 0.0000000000000000e+00  0.0000000000000000e+00 0.0000000000000000e+00 0.0000000000000000e+00  0.0000000000000000e+00 0.0000000000000000e+00 0.0000000000000000e+00  0.0000000000000000e+00 0.0000000000000000e+00 0.0000000000000000e+00  0.0000000000000000e+00 0.0000000000000000e+00 0.0000000000000000e+00  0.0000000000000000e+00 0.0000000000000000e+00 0.0000000000000000e+00  0.0000000000000000e+00 0.0000000000000000e+00 0.0000000000000000e+00  0.0000000000000000e+00 0.0000000000000000e+00 0.0000000000000000e+00  0.0000000000000000e+00 0.0000000000000000e+00 0.0000000000000000e+00  0.0000000000000000e+00 0.0000000000000000e+00 0.0000000000000000e+00  0.0000000000000000e+00 0.0000000000000000e+00 0.0000000000000000e+00  0.0000000000000000e+00 0.0000000000000000e+00 0.0000000000000000e+00  0.0000000000000000e+00 0.0000000000000000e+00 0.0000000000000000e+00  0.0000000000000000e+00 0.0000000000000000e+00 0.0000000000000000e+00  0.0000000000000000e+00 0.0000000000000000e+00 0.0000000000000000e+00  0.0000000000000000e+00 0.0000000000000000e+00 0.0000000000000000e+00  0.0000000000000000e+00 0.0000000000000000e+00 0.0000000000000000e+00  0.0000000000000000e+00 0.0000000000000000e+00 0.0000000000000000e+00  0.0000000000000000e+00 0.0000000000000000e+00 0.0000000000000000e+00  0.0000000000000000e+00 0.0000000000000000e+00 0.0000000000000000e+00  0.0000000000000000e+00 0.0000000000000000e+00 0.0000000000000000e+00  -8.3519617359484690e-04 8.2710849501635962e-04 0.0000000000000000e+00  -2.2109442569179837e-03 8.8346653116705973e-04 0.0000000000000000e+00  -3.5600195218517608e-03 8.3501411642979671e-04 0.0000000000000000e+00  -4.8168059661841799e-03 7.6754738091619479e-04 0.0000000000000000e+00  -5.9515692542215634e-03 6.8059034009108693e-04 0.0000000000000000e+00  -6.9346595013639991e-03 5.7620354231521797e-04 0.0000000000000000e+00  -7.7409039806624873e-03 4.5662596934272675e-04 0.0000000000000000e+00  -8.3489410290990464e-03 3.2433302791423006e-04 0.0000000000000000e+00  -8.7416467577507047e-03 1.8203706955057463e-04 0.0000000000000000e+00  -8.9064387858075397e-03 3.2699520159982469e-05 0.0000000000000000e+00  -8.8356212129273772e-03 -1.2041167940973540e-04 0.0000000000000000e+00  -8.5268253974103685e-03 -2.7365517841314036e-04 0.0000000000000000e+00  -7.9835384181968939e-03 -4.2297181332730005e-04 0.0000000000000000e+00  -7.2156804819117938e-03 -5.6390157241533346e-04 0.0000000000000000e+00  -6.2400569601466262e-03 -6.9168232781209062e-04 0.0000000000000000e+00  -5.0806850723929733e-03 -8.0154921228345907e-04 0.0000000000000000e+00  -3.7683971147831580e-03 -8.8868454707748091e-04 0.0000000000000000e+00  -2.3460243048138451e-03 -9.4189788757833377e-04 0.0000000000000000e+00  -8.7403965750748993e-04 -8.7257978122075492e-04 0.0000000000000000e+00  0.0000000000000000e+00 0.0000000000000000e+00 0.0000000000000000e+00  0.0000000000000000e+00 0.0000000000000000e+00 0.0000000000000000e+00  -9.4399386797130210e-04 2.2361346560286076e-03 0.0000000000000000e+00  -2.4743911084118522e-03 2.3650215106200577e-03 0.0000000000000000e+00  -3.9695905598219443e-03 2.2443561793175459e-03 0.0000000000000000e+00  -5.3659931794715855e-03 2.0613313135165998e-03 0.0000000000000000e+00  -6.6252450678340293e-03 1.8260879548188680e-03 0.0000000000000000e+00  -7.7155538762153329e-03 1.5443886824792862e-03 0.0000000000000000e+00  -8.6093188428401825e-03 1.2225375200443736e-03 0.0000000000000000e+00  -9.2833298712053629e-03 8.6743469637401210e-04 0.0000000000000000e+00  -9.7190824982503823e-03 4.8646500863208062e-04 0.0000000000000000e+00  -9.9029594988670928e-03 8.7548321608108115e-05 0.0000000000000000e+00  -9.8265245966661346e-03 -3.2070612647793297e-04 0.0000000000000000e+00  -9.4869601383765819e-03 -7.2880399226246521e-04 0.0000000000000000e+00  -8.8876643899229637e-03 -1.1262147488812055e-03 0.0000000000000000e+00  -8.0389650269935883e-03 -1.5013667469157416e-03 0.0000000000000000e+00  -6.9587183343012048e-03 -1.8418811127652885e-03 0.0000000000000000e+00  -5.6732647573067511e-03 -2.1351020683828383e-03 0.0000000000000000e+00  -4.2159262760001212e-03 -2.3686047415525970e-03 0.0000000000000000e+00  -2.6337670963417024e-03 -2.5157507949842219e-03 0.0000000000000000e+00  -1.0023069245445946e-03 -2.3832791299378603e-03 0.0000000000000000e+00  0.0000000000000000e+00 0.0000000000000000e+00 0.0000000000000000e+00  0.0000000000000000e+00 0.0000000000000000e+00 0.0000000000000000e+00  -9.9102169227722179e-04 3.7340849842228577e-03 0.0000000000000000e+00  -2.6088356263227128e-03 3.9355413610071511e-03 0.0000000000000000e+00  -4.1879839253812449e-03 3.7353017399711069e-03 0.0000000000000000e+00  -5.6628125008739445e-03 3.4292618450222946e-03 0.0000000000000000e+00  -6.9927452881314084e-03 3.0365705835181359e-03 0.0000000000000000e+00  -8.1451122386011938e-03 2.5670567748653046e-03 0.0000000000000000e+00  -9.0912858018800582e-03 2.0315690409180172e-03 0.0000000000000000e+00  -9.8074048716083797e-03 1.4416553301588731e-03 0.0000000000000000e+00  -1.0274323461189332e-02 8.0945335633720206e-04 0.0000000000000000e+00  -1.0477644472916249e-02 1.4780635234224528e-04 0.0000000000000000e+00  -1.0407897757659806e-02 -5.2942744161924612e-04 0.0000000000000000e+00  -1.0060962030882938e-02 -1.2069609555989519e-03 0.0000000000000000e+00  -9.4387818282715471e-03 -1.8677151811167304e-03 0.0000000000000000e+00  -8.5503494590108958e-03 -2.4926936166162141e-03 0.0000000000000000e+00  -7.4127055094828660e-03 -3.0612703215502500e-03 0.0000000000000000e+00  -6.0523114510327948e-03 -3.5520366025474791e-03 0.0000000000000000e+00  -4.5036644100688783e-03 -3.9434959516685191e-03 0.0000000000000000e+00  -2.8175327279921238e-03 -4.1949460333432229e-03 0.0000000000000000e+00  -1.0726571599280991e-03 -3.9878302211107212e-03 0.0000000000000000e+00  0.0000000000000000e+00 0.0000000000000000e+00 0.0000000000000000e+00  0.0000000000000000e+00 0.0000000000000000e+00 0.0000000000000000e+00  -1.0659909733465147e-03 5.3266929491280852e-03 0.0000000000000000e+00  -2.8055907901342681e-03 5.6097870495784340e-03 0.0000000000000000e+00  -4.5035178444280564e-03 5.3248056397131177e-03 0.0000000000000000e+00  -6.0883740615923524e-03 4.8876227136503466e-03 0.0000000000000000e+00  -7.5170990892704705e-03 4.3274676135441016e-03 0.0000000000000000e+00  -8.7555750993794611e-03 3.6590455154509138e-03 0.0000000000000000e+00  -9.7742113344448048e-03 2.8980570174678634e-03 0.0000000000000000e+00  -1.0548567141862437e-02 2.0608372006300692e-03 0.0000000000000000e+00  -1.1058911705000512e-02 1.1641766835371833e-03 0.0000000000000000e+00  -1.1289963778614302e-02 2.2552558885750778e-04 0.0000000000000000e+00  -1.1230835500077000e-02 -7.3643783060353338e-04 0.0000000000000000e+00  -1.0875386264694744e-02 -1.7010178745181350e-03 0.0000000000000000e+00  -1.0223097330405748e-02 -2.6447316715323909e-03 0.0000000000000000e+00  -9.2804749493899993e-03 -3.5408667322788514e-03 0.0000000000000000e+00  -8.0626788776430279e-03 -4.3596849590201011e-03 0.0000000000000000e+00  -6.5957737988743487e-03 -5.0695430763507800e-03 0.0000000000000000e+00  -4.9157013811385302e-03 -5.6382454429809836e-03 0.0000000000000000e+00  -3.0782856861722198e-03 -6.0078030622495145e-03 0.0000000000000000e+00  -1.1716789944487829e-03 -5.7233012459229808e-03 0.0000000000000000e+00  0.0000000000000000e+00 0.0000000000000000e+00 0.0000000000000000e+00  0.0000000000000000e+00 0.0000000000000000e+00 0.0000000000000000e+00  -1.1690284877689534e-03 7.0579475990431729e-03 0.0000000000000000e+00  -3.0759232115366731e-03 7.4279134977127056e-03 0.0000000000000000e+00  -4.9360038876373816e-03 7.0492058332045316e-03 0.0000000000000000e+00  -6.6701211777206787e-03 6.4684118629883139e-03 0.0000000000000000e+00  -8.2321228106471966e-03 5.7262794550417655e-03 0.0000000000000000e+00  -9.5860211460136839e-03 4.8431975429639087e-03 0.0000000000000000e+00  -1.0701409362596484e-02 3.8403459679049396e-03 0.0000000000000000e+00  -1.1553578761367249e-02 2.7390875284771178e-03 0.0000000000000000e+00  -1.2122536996667864e-02 1.5606564842176004e-03 0.0000000000000000e+00  -1.2392207883030495e-02 3.2651392882882501e-04 0.0000000000000000e+00  -1.2349953161777873e-02 -9.4067233349609373e-04 0.0000000000000000e+00  -1.1986739722683645e-02 -2.2156214468134396e-03 0.0000000000000000e+00  -1.1298170557872897e-02 -3.4689460602308998e-03 0.0000000000000000e+00  -1.0286476468532485e-02 -4.6660453680001492e-03 0.0000000000000000e+00  -8.9631416493620684e-03 -5.7669338487398936e-03 0.0000000000000000e+00  -7.3526190812208793e-03 -6.7275500452908506e-03 0.0000000000000000e+00  -5.4921484737223839e-03 -7.5018580137682011e-03 0.0000000000000000e+00  -3.4447220882786646e-03 -8.0101828055317605e-03 0.0000000000000000e+00  -1.3115515156295365e-03 -7.6439781221535113e-03 0.0000000000000000e+00  0.0000000000000000e+00 0.0000000000000000e+00 0.0000000000000000e+00  0.0000000000000000e+00 0.0000000000000000e+00 0.0000000000000000e+00  -1.3036702325092018e-03 8.9731367926714333e-03 0.0000000000000000e+00  -3.4287370459218269e-03 9.4372273239869981e-03 0.0000000000000000e+00  -5.4987008064900401e-03 8.9524560004217470e-03 0.0000000000000000e+00  -7.4246270243019160e-03 8.2106288286970044e-03 0.0000000000000000e+00  -9.1562903769842659e-03 7.2663728344772305e-03 0.0000000000000000e+00  -1.0655804042167658e-02 6.1473217684343976e-03 0.0000000000000000e+00  -1.1892515231537542e-02 4.8811772012094853e-03 0.0000000000000000e+00  -1.2842336912987572e-02 3.4946917429786719e-03 0.0000000000000000e+00  -1.3485893339506857e-02 2.0131825185560736e-03 0.0000000000000000e+00  -1.3806839113521549e-02 4.6111034420633356e-04 0.0000000000000000e+00  -1.3790656640099114e-02 -1.1363286793113945e-03 0.0000000000000000e+00  -1.3424404669260478e-02 -2.7508401335208533e-03 0.0000000000000000e+00  -1.2697812069210753e-02 -4.3483330360503973e-03 0.0000000000000000e+00  -1.1606005463921725e-02 -5.8865602619275282e-03 0.0000000000000000e+00  -1.0153611923438208e-02 -7.3139964040830792e-03 0.0000000000000000e+00  -8.3608566682453131e-03 -8.5709970454504441e-03 0.0000000000000000e+00  -6.2651635067242327e-03 -9.5928059676530265e-03 0.0000000000000000e+00  -3.9385435332013928e-03 -1.0271084937689377e-02 0.0000000000000000e+00  -1.5008960935356686e-03 -9.8188344650662531e-03 0.0000000000000000e+00  0.0000000000000000e+00 0.0000000000000000e+00 0.0000000000000000e+00  0.0000000000000000e+00 0.0000000000000000e+00 0.0000000000000000e+00  -1.4749004312378114e-03 1.1124975356856678e-02 0.0000000000000000e+00  -3.8765333626292107e-03 1.1691024646875717e-02 0.0000000000000000e+00  -6.2102501185739255e-03 1.1082289529888817e-02 0.0000000000000000e+00  -8.3744760169657175e-03 1.0155039455396753e-02 0.0000000000000000e+00  -1.0313991327129780e-02 8.9813020017413606e-03 0.0000000000000000e+00  -1.1989450928424373e-02 7.5983736581768744e-03 0.0000000000000000e+00  -1.3371286103576466e-02 6.0420935339429663e-03 0.0000000000000000e+00  -1.4437835637122599e-02 4.3451577838054976e-03 0.0000000000000000e+00  -1.5172118552749522e-02 2.5363822016851410e-03 0.0000000000000000e+00  -1.5558794971292719e-02 6.4159676806653629e-04 0.0000000000000000e+00  -1.5581786731682021e-02 -1.3139071489862517e-03 0.0000000000000000e+00  -1.5223199861348709e-02 -3.3016308548752360e-03 0.0000000000000000e+00  -1.4464187407401853e-02 -5.2852917145243756e-03 0.0000000000000000e+00  -1.3288417553869454e-02 -7.2162617464682386e-03 0.0000000000000000e+00  -1.1688203904769897e-02 -9.0304015882730834e-03 0.0000000000000000e+00  -9.6743930486481392e-03 -1.0648224733390410e-02 0.0000000000000000e+00  -7.2814322384671020e-03 -1.1978747555051706e-02 0.0000000000000000e+00  -4.5920107250094462e-03 -1.2873859820705144e-02 0.0000000000000000e+00  -1.7524979868956115e-03 -1.2333253886891615e-02 0.0000000000000000e+00  0.0000000000000000e+00 0.0000000000000000e+00 0.0000000000000000e+00  0.0000000000000000e+00 0.0000000000000000e+00 0.0000000000000000e+00  -1.6900091889615876e-03 1.3575287027845225e-02 0.0000000000000000e+00  -4.4374087181411406e-03 1.4250781871987063e-02 0.0000000000000000e+00  -7.0969603818896131e-03 1.3492324881353481e-02 0.0000000000000000e+00  -9.5506982440424458e-03 1.2345535488675572e-02 0.0000000000000000e+00  -1.1737582882055377e-02 1.0905254612110213e-02 0.0000000000000000e+00  -1.3618030800809117e-02 9.2222645701863209e-03 0.0000000000000000e+00  -1.5166127610418668e-02 7.3430156180225789e-03 0.0000000000000000e+00  -1.6365853276304236e-02 5.3069560874805860e-03 0.0000000000000000e+00  -1.7205781040262401e-02 3.1454972666750715e-03 0.0000000000000000e+00  -1.7674052598592890e-02 8.8335094875689052e-04 0.0000000000000000e+00  -1.7754218681697222e-02 -1.4579190077771891e-03 0.0000000000000000e+00  -1.7422677877280846e-02 -3.8543230501765801e-03 0.0000000000000000e+00  -1.6648624724112222e-02 -6.2721535356325782e-03 0.0000000000000000e+00  -1.5397874916099639e-02 -8.6598259252817483e-03 0.0000000000000000e+00  -1.3641392834649473e-02 -1.0940730884148219e-02 0.0000000000000000e+00  -1.1370913517979529e-02 -1.3010352434375179e-02 0.0000000000000000e+00  -8.6105516566984466e-03 -1.4739978925816695e-02 0.0000000000000000e+00  -5.4542141631083200e-03 -1.5923579777422675e-02 0.0000000000000000e+00  -2.0859569738735711e-03 -1.5297091222295282e-02 0.0000000000000000e+00  0.0000000000000000e+00 0.0000000000000000e+00 0.0000000000000000e+00  0.0000000000000000e+00 0.0000000000000000e+00 0.0000000000000000e+00  -1.9598827189061261e-03 1.6399400899629744e-02 0.0000000000000000e+00  -5.1378551735711117e-03 1.7189628795022935e-02 0.0000000000000000e+00  -8.1964712544219265e-03 1.6243596272597537e-02 0.0000000000000000e+00  -1.0996355202500824e-02 1.4828783098454063e-02 0.0000000000000000e+00  -1.3470134236643319e-02 1.3071261620394615e-02 0.0000000000000000e+00  -1.5580620805552149e-02 1.1041220736696580e-02 0.0000000000000000e+00  -1.7310115452128443e-02 8.7993662943666260e-03 0.0000000000000000e+00  -1.8653570339147215e-02 6.3929894063696749e-03 0.0000000000000000e+00  -1.9610270564288254e-02 3.8547371381461798e-03 0.0000000000000000e+00  -2.0176116948615336e-02 1.2046096934002217e-03 0.0000000000000000e+00  -2.0337006745404580e-02 -1.5451850777601903e-03 0.0000000000000000e+00  -2.0063823280778114e-02 -4.3825244782004823e-03 0.0000000000000000e+00  -1.9310246902348394e-02 -7.2846473054192732e-03 0.0000000000000000e+00  -1.8015702049234684e-02 -1.0204795171895065e-02 0.0000000000000000e+00  -1.6115343925789245e-02 -1.3057672987908442e-02 0.0000000000000000e+00  -1.3563617641618135e-02 -1.5708415973052208e-02 0.0000000000000000e+00  -1.0358228259475615e-02 -1.7972906352026363e-02 0.0000000000000000e+00  -6.6016259714276075e-03 -1.9557054998821911e-02 0.0000000000000000e+00  -2.5321990798500144e-03 -1.8858260617569650e-02 0.0000000000000000e+00  0.0000000000000000e+00 0.0000000000000000e+00 0.0000000000000000e+00  0.0000000000000000e+00 0.0000000000000000e+00 0.0000000000000000e+00  -2.3012081804960828e-03 1.9692785177841281e-02 0.0000000000000000e+00  -6.0176005976490419e-03 2.0597219895617608e-02 0.0000000000000000e+00  -9.5637665976772909e-03 1.9406557886652468e-02 0.0000000000000000e+00  -1.2772161151285301e-02 1.7653400985430053e-02 0.0000000000000000e+00  -1.5569532470937581e-02 1.5508236617010606e-02 0.0000000000000000e+00  -1.7926343610410643e-02 1.3069655005345817e-02 0.0000000000000000e+00  -1.9840874789529828e-02 1.0417689224952750e-02 0.0000000000000000e+00  -2.1327437584863346e-02 7.6086869709193891e-03 0.0000000000000000e+00  -2.2403870813045883e-02 4.6744554404110940e-03 0.0000000000000000e+00  -2.3080553713991103e-02 1.6253964790018684e-03 0.0000000000000000e+00  -2.3350761560340067e-02 -1.5431950682737925e-03 0.0000000000000000e+00  -2.3182276447372117e-02 -4.8416178307877870e-03 0.0000000000000000e+00  -2.2511616258228038e-02 -8.2721550963734177e-03 0.0000000000000000e+00  -2.1241841094229438e-02 -1.1808889517154858e-02 0.0000000000000000e+00  -1.9249451950847925e-02 -1.5368893334568041e-02 0.0000000000000000e+00  -1.6419185698106423e-02 -1.8783682157133254e-02 0.0000000000000000e+00  -1.2689394390133583e-02 -2.1790488838189081e-02 0.0000000000000000e+00  -8.1585643480648878e-03 -2.3958903588301186e-02 0.0000000000000000e+00  -3.1431363954197633e-03 -2.3228891545866985e-02 0.0000000000000000e+00  0.0000000000000000e+00 0.0000000000000000e+00 0.0000000000000000e+00  0.0000000000000000e+00 0.0000000000000000e+00 0.0000000000000000e+00  -2.7404803888298620e-03 2.3581841021173385e-02 0.0000000000000000e+00  -7.1380459433439195e-03 2.4587106984457249e-02 0.0000000000000000e+00  -1.1281179984248544e-02 2.3063358039733084e-02 0.0000000000000000e+00  -1.4965345415882127e-02 2.0867549248204414e-02 0.0000000000000000e+00  -1.8114520765687907e-02 1.8235451561257571e-02 0.0000000000000000e+00  -2.0717066024343974e-02 1.5307286503747235e-02 0.0000000000000000e+00  -2.2800181776684282e-02 1.2188739653157196e-02 0.0000000000000000e+00  -2.4410132664682289e-02 8.9458528191489733e-03 0.0000000000000000e+00  -2.5594343743703347e-02 5.6062602357732812e-03 0.0000000000000000e+00  -2.6387098717400092e-02 2.1646273630093649e-03 0.0000000000000000e+00  -2.6797191313173759e-02 -1.4097521268585328e-03 0.0000000000000000e+00  -2.6797093622555900e-02 -5.1640227110203813e-03 0.0000000000000000e+00  -2.6309555411487631e-02 -9.1471596307081959e-03 0.0000000000000000e+00  -2.5189189814200298e-02 -1.3378279737595799e-02 0.0000000000000000e+00  -2.3226074231526141e-02 -1.7800130476664695e-02 0.0000000000000000e+00  -2.0187596558859638e-02 -2.2233147203088353e-02 0.0000000000000000e+00  -1.5877857542954635e-02 -2.6324487715145464e-02 0.0000000000000000e+00  -1.0338044838320194e-02 -2.9407380572864929e-02 0.0000000000000000e+00  -4.0020235199561896e-03 -2.8734289303284616e-02 0.0000000000000000e+00  0.0000000000000000e+00 0.0000000000000000e+00 0.0000000000000000e+00  0.0000000000000000e+00 0.0000000000000000e+00 0.0000000000000000e+00  -3.3215861153301687e-03 2.8241903239216225e-02 0.0000000000000000e+00  -8.5973905831465934e-03 2.9307964556401396e-02 0.0000000000000000e+00  -1.3475298982609733e-02 2.7309786500547942e-02 0.0000000000000000e+00  -1.7703480797738525e-02 2.4513197838975775e-02 0.0000000000000000e+00  -2.1213104524100676e-02 2.1252637277368498e-02 0.0000000000000000e+00  -2.4030419949097402e-02 1.7728214872474810e-02 0.0000000000000000e+00  -2.6232782600125400e-02 1.4077348163000113e-02 0.0000000000000000e+00  -2.7916322822353352e-02 1.0373897418470173e-02 0.0000000000000000e+00  -2.9172012623610619e-02 6.6356271354587196e-03 0.0000000000000000e+00  -3.0069532153456761e-02 2.8341437248943059e-03 0.0000000000000000e+00  -3.0645634561721816e-02 -1.0975311536505518e-03 0.0000000000000000e+00  -3.0892664708880805e-02 -5.2585042192885272e-03 0.0000000000000000e+00  -3.0722846834923007e-02 -9.7604633218652745e-03 0.0000000000000000e+00  -2.9948514049961010e-02 -1.4698134887290843e-02 0.0000000000000000e+00  -2.8288239505767015e-02 -2.0141688112813166e-02 0.0000000000000000e+00  -2.5282433444371616e-02 -2.6020687011844235e-02 0.0000000000000000e+00  -2.0395810579626424e-02 -3.1814845072096878e-02 0.0000000000000000e+00  -1.3490115519739014e-02 -3.6339429143850910e-02 0.0000000000000000e+00  -5.2320853121855812e-03 -3.5808447727344365e-02 0.0000000000000000e+00  0.0000000000000000e+00 0.0000000000000000e+00 0.0000000000000000e+00  0.0000000000000000e+00 0.0000000000000000e+00 0.0000000000000000e+00  -4.1209084801908493e-03 3.3928308436023832e-02 0.0000000000000000e+00  -1.0558611404778880e-02 3.4961039495443068e-02 0.0000000000000000e+00  -1.6346024242341516e-02 3.2254627588016380e-02 0.0000000000000000e+00  -2.1175546269368104e-02 2.8613198710360520e-02 0.0000000000000000e+00  -2.5013038719155580e-02 2.4522391012044214e-02 0.0000000000000000e+00  -2.7961740662944795