<?xml version="1.0"?>
<VTKFile type="UnstructuredGrid"  version="0.1"  >
<UnstructuredGrid>
<Piece  NumberOfPoints="441" NumberOfCells="800">
<Points>
<DataArray  type="Float64"  NumberOfComponents="3"  format="ascii">0 0 0  0.05 0 0  0.1 0 0  0.15 0 0  0.2 0 0  0.25 0 0  0.3 0 0  0.35 0 0  0.4 0 0  0.45 0 0  0.5 0 0  0.55 0 0  0.6 0 0  0.65 0 0  0.7 0 0  0.75 0 0  0.8 0 0  0.85 0 0  0.9 0 0  0.95 0 0  1 0 0  0 0.05 0  0.05 0.05 0  0.1 0.05 0  0.15 0.05 0  0.2 0.05 0  0.25 0.05 0  0.3 0.05 0  0.35 0.05 0  0.4 0.05 0  0.45 0.05 0  0.5 0.05 0  0.55 0.05 0  0.6 0.05 0  0.65 0.05 0  0.7 0.05 0  0.75 0.05 0  0.8 0.05 0  0.85 0.05 0  0.9 0.05 0  0.95 0.05 0  1 0.05 0  0 0.1 0  0.05 0.1 0  0.1 0.1 0  0.15 0.1 0  0.2 0.1 0  0.25 0.1 0  0.3 0.1 0  0.35 0.1 0  0.4 0.1 0  0.45 0.1 0  0.5 0.1 0  0.55 0.1 0  0.6 0.1 0  0.65 0.1 0  0.7 0.1 0  0.75 0.1 0  0.8 0.1 0  0.85 0.1 0  0.9 0.1 0  0.95 0.1 0  1 0.1 0  0 0.15 0  0.05 0.15 0  0.1 0.15 0  0.15 0.15 0  0.2 0.15 0  0.25 0.15 0  0.3 0.15 0  0.35 0.15 0  0.4 0.15 0  0.45 0.15 0  0.5 0.15 0  0.55 0.15 0  0.6 0.15 0  0.65 0.15 0  0.7 0.15 0  0.75 0.15 0  0.8 0.15 0  0.85 0.15 0  0.9 0.15 0  0.95 0.15 0  1 0.15 0  0 0.2 0  0.05 0.2 0  0.1 0.2 0  0.15 0.2 0  0.2 0.2 0  0.25 0.2 0  0.3 0.2 0  0.35 0.2 0  0.4 0.2 0  0.45 0.2 0  0.5 0.2 0  0.55 0.2 0  0.6 0.2 0  0.65 0.2 0  0.7 0.2 0  0.75 0.2 0  0.8 0.2 0  0.85 0.2 0  0.9 0.2 0  0.95 0.2 0  1 0.2 0  0 0.25 0  0.05 0.25 0  0.1 0.25 0  0.15 0.25 0  0.2 0.25 0  0.25 0.25 0  0.3 0.25 0  0.35 0.25 0  0.4 0.25 0  0.45 0.25 0  0.5 0.25 0  0.55 0.25 0  0.6 0.25 0  0.65 0.25 0  0.7 0.25 0  0.75 0.25 0  0.8 0.25 0  0.85 0.25 0  0.9 0.25 0  0.95 0.25 0  1 0.25 0  0 0.3 0  0.05 0.3 0  0.1 0.3 0  0.15 0.3 0  0.2 0.3 0  0.25 0.3 0  0.3 0.3 0  0.35 0.3 0  0.4 0.3 0  0.45 0.3 0  0.5 0.3 0  0.55 0.3 0  0.6 0.3 0  0.65 0.3 0  0.7 0.3 0  0.75 0.3 0  0.8 0.3 0  0.85 0.3 0  0.9 0.3 0  0.95 0.3 0  1 0.3 0  0 0.35 0  0.05 0.35 0  0.1 0.35 0  0.15 0.35 0  0.2 0.35 0  0.25 0.35 0  0.3 0.35 0  0.35 0.35 0  0.4 0.35 0  0.45 0.35 0  0.5 0.35 0  0.55 0.35 0  0.6 0.35 0  0.65 0.35 0  0.7 0.35 0  0.75 0.35 0  0.8 0.35 0  0.85 0.35 0  0.9 0.35 0  0.95 0.35 0  1 0.35 0  0 0.4 0  0.05 0.4 0  0.1 0.4 0  0.15 0.4 0  0.2 0.4 0  0.25 0.4 0  0.3 0.4 0  0.35 0.4 0  0.4 0.4 0  0.45 0.4 0  0.5 0.4 0  0.55 0.4 0  0.6 0.4 0  0.65 0.4 0  0.7 0.4 0  0.75 0.4 0  0.8 0.4 0  0.85 0.4 0  0.9 0.4 0  0.95 0.4 0  1 0.4 0  0 0.45 0  0.05 0.45 0  0.1 0.45 0  0.15 0.45 0  0.2 0.45 0  0.25 0.45 0  0.3 0.45 0  0.35 0.45 0  0.4 0.45 0  0.45 0.45 0  0.5 0.45 0  0.55 0.45 0  0.6 0.45 0  0.65 0.45 0  0.7 0.45 0  0.75 0.45 0  0.8 0.45 0  0.85 0.45 0  0.9 0.45 0  0.95 0.45 0  1 0.45 0  0 0.5 0  0.05 0.5 0  0.1 0.5 0  0.15 0.5 0  0.2 0.5 0  0.25 0.5 0  0.3 0.5 0  0.35 0.5 0  0.4 0.5 0  0.45 0.5 0  0.5 0.5 0  0.55 0.5 0  0.6 0.5 0  0.65 0.5 0  0.7 0.5 0  0.75 0.5 0  0.8 0.5 0  0.85 0.5 0  0.9 0.5 0  0.95 0.5 0  1 0.5 0  0 0.55 0  0.05 0.55 0  0.1 0.55 0  0.15 0.55 0  0.2 0.55 0  0.25 0.55 0  0.3 0.55 0  0.35 0.55 0  0.4 0.55 0  0.45 0.55 0  0.5 0.55 0  0.55 0.55 0  0.6 0.55 0  0.65 0.55 0  0.7 0.55 0  0.75 0.55 0  0.8 0.55 0  0.85 0.55 0  0.9 0.55 0  0.95 0.55 0  1 0.55 0  0 0.6 0  0.05 0.6 0  0.1 0.6 0  0.15 0.6 0  0.2 0.6 0  0.25 0.6 0  0.3 0.6 0  0.35 0.6 0  0.4 0.6 0  0.45 0.6 0  0.5 0.6 0  0.55 0.6 0  0.6 0.6 0  0.65 0.6 0  0.7 0.6 0  0.75 0.6 0  0.8 0.6 0  0.85 0.6 0  0.9 0.6 0  0.95 0.6 0  1 0.6 0  0 0.65 0  0.05 0.65 0  0.1 0.65 0  0.15 0.65 0  0.2 0.65 0  0.25 0.65 0  0.3 0.65 0  0.35 0.65 0  0.4 0.65 0  0.45 0.65 0  0.5 0.65 0  0.55 0.65 0  0.6 0.65 0  0.65 0.65 0  0.7 0.65 0  0.75 0.65 0  0.8 0.65 0  0.85 0.65 0  0.9 0.65 0  0.95 0.65 0  1 0.65 0  0 0.7 0  0.05 0.7 0  0.1 0.7 0  0.15 0.7 0  0.2 0.7 0  0.25 0.7 0  0.3 0.7 0  0.35 0.7 0  0.4 0.7 0  0.45 0.7 0  0.5 0.7 0  0.55 0.7 0  0.6 0.7 0  0.65 0.7 0  0.7 0.7 0  0.75 0.7 0  0.8 0.7 0  0.85 0.7 0  0.9 0.7 0  0.95 0.7 0  1 0.7 0  0 0.75 0  0.05 0.75 0  0.1 0.75 0  0.15 0.75 0  0.2 0.75 0  0.25 0.75 0  0.3 0.75 0  0.35 0.75 0  0.4 0.75 0  0.45 0.75 0  0.5 0.75 0  0.55 0.75 0  0.6 0.75 0  0.65 0.75 0  0.7 0.75 0  0.75 0.75 0  0.8 0.75 0  0.85 0.75 0  0.9 0.75 0  0.95 0.75 0  1 0.75 0  0 0.8 0  0.05 0.8 0  0.1 0.8 0  0.15 0.8 0  0.2 0.8 0  0.25 0.8 0  0.3 0.8 0  0.35 0.8 0  0.4 0.8 0  0.45 0.8 0  0.5 0.8 0  0.55 0.8 0  0.6 0.8 0  0.65 0.8 0  0.7 0.8 0  0.75 0.8 0  0.8 0.8 0  0.85 0.8 0  0.9 0.8 0  0.95 0.8 0  1 0.8 0  0 0.85 0  0.05 0.85 0  0.1 0.85 0  0.15 0.85 0  0.2 0.85 0  0.25 0.85 0  0.3 0.85 0  0.35 0.85 0  0.4 0.85 0  0.45 0.85 0  0.5 0.85 0  0.55 0.85 0  0.6 0.85 0  0.65 0.85 0  0.7 0.85 0  0.75 0.85 0  0.8 0.85 0  0.85 0.85 0  0.9 0.85 0  0.95 0.85 0  1 0.85 0  0 0.9 0  0.05 0.9 0  0.1 0.9 0  0.15 0.9 0  0.2 0.9 0  0.25 0.9 0  0.3 0.9 0  0.35 0.9 0  0.4 0.9 0  0.45 0.9 0  0.5 0.9 0  0.55 0.9 0  0.6 0.9 0  0.65 0.9 0  0.7 0.9 0  0.75 0.9 0  0.8 0.9 0  0.85 0.9 0  0.9 0.9 0  0.95 0.9 0  1 0.9 0  0 0.95 0  0.05 0.95 0  0.1 0.95 0  0.15 0.95 0  0.2 0.95 0  0.25 0.95 0  0.3 0.95 0  0.35 0.95 0  0.4 0.95 0  0.45 0.95 0  0.5 0.95 0  0.55 0.95 0  0.6 0.95 0  0.65 0.95 0  0.7 0.95 0  0.75 0.95 0  0.8 0.95 0  0.85 0.95 0  0.9 0.95 0  0.95 0.95 0  1 0.95 0  0 1 0  0.05 1 0  0.1 1 0  0.15 1 0  0.2 1 0  0.25 1 0  0.3 1 0  0.35 1 0  0.4 1 0  0.45 1 0  0.5 1 0  0.55 1 0  0.6 1 0  0.65 1 0  0.7 1 0  0.75 1 0  0.8 1 0  0.85 1 0  0.9 1 0  0.95 1 0  1 1 0  </DataArray>
</Points>
<Cells>
[...]
<PointData  Vectors="f_137"> 
<DataArray  type="Float64"  Name="f_137"  NumberOfComponents="3" format="ascii">0.0000000000000000e+00 0.0000000000000000e+00 0.0000000000000000e+00  0.0000000000000000e+00 0.0000000000000000e+00 0.0000000000000000e+00  0.0000000000000000e+00 0.0000000000000000e+00 0.0000000000000000e+00  0.0000000000000000e+00 0.0000000000000000e+00 0.0000000000000000e+00  0.0000000000000000e+00 0.0000000000000000e+00 0.0000000000000000e+00  0.0000000000000000e+00 0.0000000000000000e+00 0.0000000000000000e+00  0.0000000000000000e+00 0.0000000000000000e+00 0.0000000000000000e+00  0.0000000000000000e+00 0.0000000000000000e+00 0.0000000000000000e+00  0.0000000000000000e+00 0.0000000000000000e+00 0.0000000000000000e+00  0.0000000000000000e+00 0.0000000000000000e+00 0.0000000000000000e+00  0.0000000000000000e+00 0.0000000000000000e+00 0.0000000000000000e+00  0.0000000000000000e+00 0.0000000000000000e+00 0.0000000000000000e+00  0.0000000000000000e+00 0.0000000000000000e+00 0.0000000000000000e+00  0.0000000000000000e+00 0.0000000000000000e+00 0.0000000000000000e+00  0.0000000000000000e+00 0.0000000000000000e+00 0.0000000000000000e+00  0.0000000000000000e+00 0.0000000000000000e+00 0.0000000000000000e+00  0.0000000000000000e+00 0.0000000000000000e+00 0.0000000000000000e+00  0.0000000000000000e+00 0.0000000000000000e+00 0.0000000000000000e+00  0.0000000000000000e+00 0.0000000000000000e+00 0.0000000000000000e+00  0.0000000000000000e+00 0.0000000000000000e+00 0.0000000000000000e+00  0.0000000000000000e+00 0.0000000000000000e+00 0.0000000000000000e+00  0.0000000000000000e+00 0.0000000000000000e+00 0.0000000000000000e+00  -8.3542767112406585e-04 8.2738441139278054e-04 0.0000000000000000e+00  -2.2237101936269012e-03 8.8983049010947133e-04 0.0000000000000000e+00  -3.5887265011710807e-03 8.4140665153364209e-04 0.0000000000000000e+00  -4.8607981301889919e-03 7.7386652407479366e-04 0.0000000000000000e+00  -6.0100320413477978e-03 6.8669771775853761e-04 0.0000000000000000e+00  -7.0063687536047964e-03 5.8193360340207177e-04 0.0000000000000000e+00  -7.8242552176344612e-03 4.6178317873192868e-04 0.0000000000000000e+00  -8.4419318390487209e-03 3.2869790652072050e-04 0.0000000000000000e+00  -8.8418753745118390e-03 1.8537675020901772e-04 0.0000000000000000e+00  -9.0111211665681468e-03 3.4781604364349091e-05 0.0000000000000000e+00  -8.9416312761945969e-03 -1.1980114775875863e-04 0.0000000000000000e+00  -8.6307641815986727e-03 -2.7469023536628653e-04 0.0000000000000000e+00  -8.0818359218995800e-03 -4.2576301052987088e-04 0.0000000000000000e+00  -7.3047329768183185e-03 -5.6847360061841492e-04 0.0000000000000000e+00  -6.3163906225146595e-03 -6.9795421960563736e-04 0.0000000000000000e+00  -5.1411553244169982e-03 -8.0931757518499592e-04 0.0000000000000000e+00  -3.8103671666209812e-03 -8.9763877279920969e-04 0.0000000000000000e+00  -2.3676692071212943e-03 -9.5128812387223463e-04 0.0000000000000000e+00  -8.7777445083854608e-04 -8.7642716678510281e-04 0.0000000000000000e+00  0.0000000000000000e+00 0.0000000000000000e+00 0.0000000000000000e+00  0.0000000000000000e+00 0.0000000000000000e+00 0.0000000000000000e+00  -9.5045393471860859e-04 2.2491277080517245e-03 0.0000000000000000e+00  -2.5027742018799868e-03 2.3927650279915581e-03 0.0000000000000000e+00  -4.0224242569319446e-03 2.2717674880630857e-03 0.0000000000000000e+00  -5.4421884455183606e-03 2.0875402669930324e-03 0.0000000000000000e+00  -6.7231405631404994e-03 1.8504325431673513e-03 0.0000000000000000e+00  -7.8328982892466592e-03 1.5662237430440137e-03 0.0000000000000000e+00  -8.7433290658220919e-03 1.2411861775052323e-03 0.0000000000000000e+00  -9.4307024134323500e-03 8.8220830160891384e-04 0.0000000000000000e+00  -9.8760248614993516e-03 4.9668748101908773e-04 0.0000000000000000e+00  -1.0065235355925638e-02 9.2589944491440628e-05 0.0000000000000000e+00  -9.9895214081975135e-03 -3.2138452549330742e-04 0.0000000000000000e+00  -9.6457858567132772e-03 -7.3559736561528680e-04 0.0000000000000000e+00  -9.0372791843802980e-03 -1.1393139774063120e-03 0.0000000000000000e+00  -8.1743541277031553e-03 -1.5206994780289950e-03 0.0000000000000000e+00  -7.0750928985778257e-03 -1.8670629214312304e-03 0.0000000000000000e+00  -5.7663122452188235e-03 -2.1653948972514916e-03 0.0000000000000000e+00  -4.2820759263991022e-03 -2.4028828803551853e-03 0.0000000000000000e+00  -2.6704518658688626e-03 -2.5520688893075779e-03 0.0000000000000000e+00  -1.0116549851501883e-03 -2.4051896411660606e-03 0.0000000000000000e+00  0.0000000000000000e+00 0.0000000000000000e+00 0.0000000000000000e+00  0.0000000000000000e+00 0.0000000000000000e+00 0.0000000000000000e+00  -9.9747243568545333e-04 3.7638369712221309e-03 0.0000000000000000e+00  -2.6382269756571410e-03 3.9885060274496070e-03 0.0000000000000000e+00  -4.2429559300503896e-03 3.7873640386008010e-03 0.0000000000000000e+00  -5.7423043842848680e-03 3.4787468627520083e-03 0.0000000000000000e+00  -7.0950844144983729e-03 3.0822198602439006e-03 0.0000000000000000e+00  -8.2680490102777036e-03 2.6076617104020122e-03 0.0000000000000000e+00  -9.2320109883608954e-03 2.0659092392134909e-03 0.0000000000000000e+00  -9.9625617212314929e-03 1.4685183177587545e-03 0.0000000000000000e+00  -1.0440026991486861e-02 8.2767088891441329e-04 0.0000000000000000e+00  -1.0649514223030704e-02 1.5630650326004184e-04 0.0000000000000000e+00  -1.0581112312987610e-02 -5.3155025600612016e-04 0.0000000000000000e+00  -1.0230344592802244e-02 -1.2203580217402508e-03 0.0000000000000000e+00  -9.5989268774871860e-03 -1.8926819693771055e-03 0.0000000000000000e+00  -8.6958016040209855e-03 -2.5290656681995435e-03 0.0000000000000000e+00  -7.5381814074770041e-03 -3.1083324965329212e-03 0.0000000000000000e+00  -6.1529922090415691e-03 -3.6084479598519248e-03 0.0000000000000000e+00  -4.5754994347899629e-03 -4.0072202761518771e-03 0.0000000000000000e+00  -2.8575239356173291e-03 -4.2625731899882295e-03 0.0000000000000000e+00  -1.0830542038735350e-03 -4.0318660825228282e-03 0.0000000000000000e+00  0.0000000000000000e+00 0.0000000000000000e+00 0.0000000000000000e+00  0.0000000000000000e+00 0.0000000000000000e+00 0.0000000000000000e+00  -1.0725093429409609e-03 5.3735807516417360e-03 0.0000000000000000e+00  -2.8362513221653254e-03 5.6891070734674636e-03 0.0000000000000000e+00  -4.5612184169034229e-03 5.4027005368029327e-03 0.0000000000000000e+00  -6.1720774443133081e-03 4.9615837216432030e-03 0.0000000000000000e+00  -7.6251553316437036e-03 4.3956406596767283e-03 0.0000000000000000e+00  -8.8857516795373334e-03 3.7196492427828262e-03 0.0000000000000000e+00  -9.9236944669634612e-03 2.9493055727524125e-03 0.0000000000000000e+00  -1.0713963910824421e-02 2.1009586528164641e-03 0.0000000000000000e+00  -1.1236250588675768e-02 1.1914591608727515e-03 0.0000000000000000e+00  -1.1474706885388857e-02 2.3838509008769084e-04 0.0000000000000000e+00  -1.1417909272071213e-02 -7.3936182079152677e-04 0.0000000000000000e+00  -1.1059244298802801e-02 -1.7207360885068371e-03 0.0000000000000000e+00  -1.0397831902055085e-02 -2.6817515234628100e-03 0.0000000000000000e+00  -9.4399982537128023e-03 -3.5950257316159874e-03 0.0000000000000000e+00  -8.2009704302481983e-03 -4.4299962189538362e-03 0.0000000000000000e+00  -6.7072339780438724e-03 -5.1540633670679866e-03 0.0000000000000000e+00  -4.9955352209370635e-03 -5.7339564527724429e-03 0.0000000000000000e+00  -3.1228964282717648e-03 -6.1096891121566466e-03 0.0000000000000000e+00  -1.1833791291643084e-03 -5.7917066646512088e-03 0.0000000000000000e+00  0.0000000000000000e+00 0.0000000000000000e+00 0.0000000000000000e+00  0.0000000000000000e+00 0.0000000000000000e+00 0.0000000000000000e+00  -1.1756853248741624e-03 7.1228568078447064e-03 0.0000000000000000e+00  -3.1083434602122671e-03 7.5352842008317511e-03 0.0000000000000000e+00  -4.9974377801940886e-03 7.1546682649087931e-03 0.0000000000000000e+00  -6.7595757828152799e-03 6.5686152742315072e-03 0.0000000000000000e+00  -8.3479839406634514e-03 5.8187683666412011e-03 0.0000000000000000e+00  -9.7260824704396964e-03 4.9256052370994256e-03 0.0000000000000000e+00  -1.0862861634141194e-02 3.9102926865068168e-03 0.0000000000000000e+00  -1.1732996704515879e-02 2.7941976622194303e-03 0.0000000000000000e+00  -1.2315857496357174e-02 1.5986078352313916e-03 0.0000000000000000e+00  -1.2594712414977359e-02 3.4511557981679343e-04 0.0000000000000000e+00  -1.2556261095394336e-02 -9.4336214782314695e-04 0.0000000000000000e+00  -1.2190830737682411e-02 -2.2411279842399468e-03 0.0000000000000000e+00  -1.1493462407294335e-02 -3.5181594430164680e-03 0.0000000000000000e+00  -1.0465995674349918e-02 -4.7389654295702426e-03 0.0000000000000000e+00  -9.1197973587821505e-03 -5.8624138843459978e-03 0.0000000000000000e+00  -7.4796444678434772e-03 -6.8430663022976054e-03 0.0000000000000000e+00  -5.5836168744735253e-03 -7.6333055413833869e-03 0.0000000000000000e+00  -3.4961176589995411e-03 -8.1506540438975299e-03 0.0000000000000000e+00  -1.3252307332276623e-03 -7.7400257356611988e-03 0.0000000000000000e+00  0.0000000000000000e+00 0.0000000000000000e+00 0.0000000000000000e+00  0.0000000000000000e+00 0.0000000000000000e+00 0.0000000000000000e+00  -1.3105055867840675e-03 9.0572057276819048e-03 0.0000000000000000e+00  -3.4634260085229106e-03 9.5748349074643441e-03 0.0000000000000000e+00  -5.5649226572922206e-03 9.0877567073323409e-03 0.0000000000000000e+00  -7.5214490457482458e-03 8.3393977564301322e-03 0.0000000000000000e+00  -9.2821521401128607e-03 7.3855424805365482e-03 0.0000000000000000e+00  -1.0808541306042026e-02 6.2539238852640849e-03 0.0000000000000000e+00  -1.2069342285409783e-02 4.9722109294053924e-03 0.0000000000000000e+00  -1.3039816990768224e-02 3.5671307466090723e-03 0.0000000000000000e+00  -1.3699891776571981e-02 2.0640183189806270e-03 0.0000000000000000e+00  -1.4032466814224143e-02 4.8742890032408485e-04 0.0000000000000000e+00  -1.4022208545692751e-02 -1.1372171105728335e-03 0.0000000000000000e+00  -1.3655314411103061e-02 -2.7811956494436275e-03 0.0000000000000000e+00  -1.2920661561953753e-02 -4.4096899638184309e-03 0.0000000000000000e+00  -1.1812653260029242e-02 -5.9793475692491473e-03 0.0000000000000000e+00  -1.0335478929204464e-02 -7.4371178955438717e-03 0.0000000000000000e+00  -8.5094827871354996e-03 -8.7214237608709000e-03 0.0000000000000000e+00  -6.3729286202015732e-03 -9.7652145620887709e-03 0.0000000000000000e+00  -3.9995259297722820e-03 -1.0456258063569817e-02 0.0000000000000000e+00  -1.5174173408817563e-03 -9.9472762164309596e-03 0.0000000000000000e+00  0.0000000000000000e+00 0.0000000000000000e+00 0.0000000000000000e+00  0.0000000000000000e+00 0.0000000000000000e+00 0.0000000000000000e+00  -1.4819085478253529e-03 1.1229621489761355e-02 0.0000000000000000e+00  -3.9139377726616388e-03 1.1861603213940393e-02 0.0000000000000000e+00  -6.2822595917678943e-03 1.1250258193820799e-02 0.0000000000000000e+00  -8.4802367940389044e-03 1.0315269152756322e-02 0.0000000000000000e+00  -1.0452016202005844e-02 9.1301076053053789e-03 0.0000000000000000e+00  -1.2157643634439370e-02 7.7321747727876616e-03 0.0000000000000000e+00  -1.3566917851627478e-02 6.1572467935344785e-03 0.0000000000000000e+00  -1.4657503232210144e-02 4.4379458800595578e-03 0.0000000000000000e+00  -1.5411673606889447e-02 2.6030373942776595e-03 0.0000000000000000e+00  -1.5813242310287530e-02 6.7835611756773600e-04 0.0000000000000000e+00  -1.5845148219475105e-02 -1.3106830714811216e-03 0.0000000000000000e+00  -1.5488362638227195e-02 -3.3352329423811770e-03 0.0000000000000000e+00  -1.4722785761694328e-02 -5.3582865499601125e-03 0.0000000000000000e+00  -1.3530849510863686e-02 -7.3299436790257430e-03 0.0000000000000000e+00  -1.1903877295370027e-02 -9.1841111921064662e-03 0.0000000000000000e+00  -9.8524162128826327e-03 -1.0838625595298797e-02 0.0000000000000000e+00  -7.4116453326623522e-03 -1.2199168830675778e-02 0.0000000000000000e+00  -4.6663257179518436e-03 -1.3112185211650291e-02 0.0000000000000000e+00  -1.7730334752601429e-03 -1.2500760809956803e-02 0.0000000000000000e+00  0.0000000000000000e+00 0.0000000000000000e+00 0.0000000000000000e+00  0.0000000000000000e+00 0.0000000000000000e+00 0.0000000000000000e+00  -1.6971249295128141e-03 1.3702165763682109e-02 0.0000000000000000e+00  -4.4779031277332867e-03 1.4457599026480878e-02 0.0000000000000000e+00  -7.1756827461792348e-03 1.3696351570776481e-02 0.0000000000000000e+00  -9.6668942808524460e-03 1.2540705176622516e-02 0.0000000000000000e+00  -1.1889863065562474e-02 1.1087261548348352e-02 0.0000000000000000e+00  -1.3804398278548312e-02 9.3869127566625528e-03 0.0000000000000000e+00  -1.5383955044104940e-02 7.4860115809044017e-03 0.0000000000000000e+00  -1.6611838819769340e-02 5.4238717001127736e-03 0.0000000000000000e+00  -1.7475863714657348e-02 3.2317559146746479e-03 0.0000000000000000e+00  -1.7963268747424384e-02 9.3423041484545950e-04 0.0000000000000000e+00  -1.8056477234360227e-02 -1.4472245146790598e-03 0.0000000000000000e+00  -1.7730454573270396e-02 -3.8885089996713272e-03 0.0000000000000000e+00  -1.6952615910347898e-02 -6.3553738443128671e-03 0.0000000000000000e+00  -1.5686767298740297e-02 -8.7949334624611922e-03 0.0000000000000000e+00  -1.3901945411912807e-02 -1.1128204239400736e-02 0.0000000000000000e+00  -1.1588755777900080e-02 -1.3247029321631446e-02 0.0000000000000000e+00  -8.7716573772122289e-03 -1.5017802650488176e-02 0.0000000000000000e+00  -5.5470693877482666e-03 -1.6226681708984822e-02 0.0000000000000000e+00  -2.1121420067874330e-03 -1.5512969582332841e-02 0.0000000000000000e+00  0.0000000000000000e+00 0.0000000000000000e+00 0.0000000000000000e+00  0.0000000000000000e+00 0.0000000000000000e+00 0.0000000000000000e+00  -1.9669659499482162e-03 1.6550360838495835e-02 0.0000000000000000e+00  -5.1817241058337536e-03 1.7436482538555290e-02 0.0000000000000000e+00  -8.2827371454332731e-03 1.6487629028922004e-02 0.0000000000000000e+00  -1.1124385509729181e-02 1.5062952690863456e-02 0.0000000000000000e+00  -1.3638662483019409e-02 1.3290643666718723e-02 0.0000000000000000e+00  -1.5787780425017071e-02 1.1241009816837708e-02 0.0000000000000000e+00  -1.7553425910224019e-02 8.9746317288995035e-03 0.0000000000000000e+00  -1.8929910004582988e-02 6.5386098511855777e-03 0.0000000000000000e+00  -1.9915804055194507e-02 3.9653329183810312e-03 0.0000000000000000e+00  -2.0506136251005166e-02 1.2744493332517634e-03 0.0000000000000000e+00  -2.0685628906083546e-02 -1.5222583183659535e-03 0.0000000000000000e+00  -2.0423471061013297e-02 -4.4130243306577509e-03 0.0000000000000000e+00  -1.9670930593566768e-02 -7.3750337905193458e-03 0.0000000000000000e+00  -1.8364351703531068e-02 -1.0360553419173014e-02 0.0000000000000000e+00  -1.6435418470883534e-02 -1.3281769174745503e-02 0.0000000000000000e+00  -1.3835758771545005e-02 -1.5999006336181825e-02 0.0000000000000000e+00  -1.0562311222197128e-02 -1.8320692581104355e-02 0.0000000000000000e+00  -6.7205238797547239e-03 -1.9941012384414297e-02 0.0000000000000000e+00  -2.5663473783306785e-03 -1.9135436850879164e-02 0.0000000000000000e+00  0.0000000000000000e+00 0.0000000000000000e+00 0.0000000000000000e+00  0.0000000000000000e+00 0.0000000000000000e+00 0.0000000000000000e+00  -2.3080242166485343e-03 1.9869815513707794e-02 0.0000000000000000e+00  -6.0650184380801773e-03 2.0888430452080643e-02 0.0000000000000000e+00  -9.6582893979867031e-03 1.9695096424212195e-02 0.0000000000000000e+00  -1.2913302031315143e-02 1.7931207239517608e-02 0.0000000000000000e+00  -1.5756172887780792e-02 1.5769770637773621e-02 0.0000000000000000e+00  -1.8156768864614547e-02 1.3309511856428159e-02 0.0000000000000000e+00  -2.0112777919676486e-02 1.0630334595680073e-02 0.0000000000000000e+00  -2.1637938590123175e-02 7.7883771890883370e-03 0.0000000000000000e+00  -2.2749508189387996e-02 4.8151082820631829e-03 0.0000000000000000e+00  -2.3457183937657212e-02 1.7203503211262079e-03 0.0000000000000000e+00  -2.3753210394027956e-02 -1.5014780796147303e-03 0.0000000000000000e+00  -2.3603573510070842e-02 -4.8617443731440585e-03 0.0000000000000000e+00  -2.2941906797342284e-02 -8.3637655674589813e-03 0.0000000000000000e+00  -2.1666930047284327e-02 -1.1981992795251101e-02 0.0000000000000000e+00  -1.9648958111793138e-02 -1.5631520268289775e-02 0.0000000000000000e+00  -1.6766377212961051e-02 -1.9137208369826960e-02 0.0000000000000000e+00  -1.2954267331410443e-02 -2.2224548039220967e-02 0.0000000000000000e+00  -8.3147768713947336e-03 -2.4445606423190994e-02 0.0000000000000000e+00  -3.1889397163524231e-03 -2.3585694267580337e-02 0.0000000000000000e+00  0.0000000000000000e+00 0.0000000000000000e+00 0.0000000000000000e+00  0.0000000000000000e+00 0.0000000000000000e+00 0.0000000000000000e+00  -2.7466791107490468e-03 2.3787012806497990e-02 0.0000000000000000e+00  -7.1890564715804250e-03 2.4927505346849271e-02 0.0000000000000000e+00  -1.1384529136288938e-02 2.3401443288231700e-02 0.0000000000000000e+00  -1.5120724022997379e-02 2.1194201552651365e-02 0.0000000000000000e+00  -1.8320988788138252e-02 1.8544509078913494e-02 0.0000000000000000e+00  -2.0973064896456731e-02 1.5592739100806908e-02 0.0000000000000000e+00  -2.3103556055386342e-02 1.2444487582812653e-02 0.0000000000000000e+00  -2.4758236080605203e-02 9.1656554227818130e-03 0.0000000000000000e+00  -2.5984186374819345e-02 5.7835641353446033e-03 0.0000000000000000e+00  -2.6815413180652923e-02 2.2921761745968872e-03 0.0000000000000000e+00  -2.7260105109703010e-02 -1.3404995909421251e-03 0.0000000000000000e+00  -2.7289539525962522e-02 -5.1638379277742560e-03 0.0000000000000000e+00  -2.6823964727923030e-02 -9.2303531375247366e-03 0.0000000000000000e+00  -2.5711413772170798e-02 -1.3561841472695634e-02 0.0000000000000000e+00  -2.3731423678742068e-02 -1.8099057953208486e-02 0.0000000000000000e+00  -2.0639721389162216e-02 -2.2654946107521560e-02 0.0000000000000000e+00  -1.6231669501339009e-02 -2.6862778223053600e-02 0.0000000000000000e+00  -1.0550399288160697e-02 -3.0029261500767641e-02 0.0000000000000000e+00  -4.0660144534736551e-03 -2.9201229735536804e-02 0.0000000000000000e+00  0.0000000000000000e+00 0.0000000000000000e+00 0.0000000000000000e+00  0.0000000000000000e+00 0.0000000000000000e+00 0.0000000000000000e+00  -3.3266850383548686e-03 2.8477328009342426e-02 0.0000000000000000e+00  -8.6518861972799156e-03 2.9702858356706836e-02 0.0000000000000000e+00  -1.3587858310956779e-02 2.7702981836538552e-02 0.0000000000000000e+00  -1.7874038005306944e-02 2.4894485695256569e-02 0.0000000000000000e+00  -2.1440961718932824e-02 2.1615195309955353e-02 0.0000000000000000e+00  -2.4314162168988619e-02 1.8065361319692570e-02 0.0000000000000000e+00  -2.6570295836153120e-02 1.4382410718183735e-02 0.0000000000000000e+00  -2.8305038734547323e-02 1.0640288122198258e-02 0.0000000000000000e+00  -2.9609327644494289e-02 6.8567202323677650e-03 0.0000000000000000e+00  -3.0553134557998778e-02 3.0028099329897778e-03 0.0000000000000000e+00  -3.1173670233780048e-02 -9.9011401377585855e-04 0.0000000000000000e+00  -3.1464468781635585e-02 -5.2251575507392288e-03 0.0000000000000000e+00  -3.1334763867901079e-02 -9.8185783401649324e-03 0.0000000000000000e+00  -3.0587698861889671e-02 -1.4867271540414086e-02 0.0000000000000000e+00  -2.8933632286243467e-02 -2.0448722522525619e-02 0.0000000000000000e+00  -2.5890031184212632e-02 -2.6506044561899412e-02 0.0000000000000000e+00  -2.0891211592224915e-02 -3.2498652284465607e-02 0.0000000000000000e+00  -1.3787915303306780e-02 -3.7167643768110041e-02 0.0000000000000000e+00  -5.3182729547101345e-03 -3.6431074065768398e-02 0.0000000000000000e+00  0.0000000000000000e+00 0.0000000000000000e+00 0.0000000000000000e+00  0.0000000000000000e+00 0.0000000000000000e+00 0.0000000000000000e+00  -4.1243066299750594e-03 3.4196119666388421e-02 0.0000000000000000e+00  -1.0616308676088282e-02 3.5416107630762299e-02 0.0000000000000000e+00  -1.6467902287465475e-02 3.2708987962219251e-02 0.0000000000000000e+00  -2.1361956374967316e-02 2.9055533911443845e-02 0.0000000000000000e+00  -2.5263695748365508e-02 2.4945112239814268e-02 0.0000000000000000e+00  -2.8275368940464302