<?xml version="1.0"?>
<VTKFile type="UnstructuredGrid"  version="0.1"  >
<UnstructuredGrid>
<Piece  NumberOfPoints="441" NumberOfCells="800">
<Points>
<DataArray  type="Float64"  NumberOfComponents="3"  format="ascii">0 0 0  0.05 0 0  0.1 0 0  0.15 0 0  0.2 0 0  0.25 0 0  0.3 0 0  0.35 0 0  0.4 0 0  0.45 0 0  0.5 0 0  0.55 0 0  0.6 0 0  0.65 0 0  0.7 0 0  0.75 0 0  0.8 0 0  0.85 0 0  0.9 0 0  0.95 0 0  1 0 0  0 0.05 0  0.05 0.05 0  0.1 0.05 0  0.15 0.05 0  0.2 0.05 0  0.25 0.05 0  0.3 0.05 0  0.35 0.05 0  0.4 0.05 0  0.45 0.05 0  0.5 0.05 0  0.55 0.05 0  0.6 0.05 0  0.65 0.05 0  0.7 0.05 0  0.75 0.05 0  0.8 0.05 0  0.85 0.05 0  0.9 0.05 0  0.95 0.05 0  1 0.05 0  0 0.1 0  0.05 0.1 0  0.1 0.1 0  0.15 0.1 0  0.2 0.1 0  0.25 0.1 0  0.3 0.1 0  0.35 0.1 0  0.4 0.1 0  0.45 0.1 0  0.5 0.1 0  0.55 0.1 0  0.6 0.1 0  0.65 0.1 0  0.7 0.1 0  0.75 0.1 0  0.8 0.1 0  0.85 0.1 0  0.9 0.1 0  0.95 0.1 0  1 0.1 0  0 0.15 0  0.05 0.15 0  0.1 0.15 0  0.15 0.15 0  0.2 0.15 0  0.25 0.15 0  0.3 0.15 0  0.35 0.15 0  0.4 0.15 0  0.45 0.15 0  0.5 0.15 0  0.55 0.15 0  0.6 0.15 0  0.65 0.15 0  0.7 0.15 0  0.75 0.15 0  0.8 0.15 0  0.85 0.15 0  0.9 0.15 0  0.95 0.15 0  1 0.15 0  0 0.2 0  0.05 0.2 0  0.1 0.2 0  0.15 0.2 0  0.2 0.2 0  0.25 0.2 0  0.3 0.2 0  0.35 0.2 0  0.4 0.2 0  0.45 0.2 0  0.5 0.2 0  0.55 0.2 0  0.6 0.2 0  0.65 0.2 0  0.7 0.2 0  0.75 0.2 0  0.8 0.2 0  0.85 0.2 0  0.9 0.2 0  0.95 0.2 0  1 0.2 0  0 0.25 0  0.05 0.25 0  0.1 0.25 0  0.15 0.25 0  0.2 0.25 0  0.25 0.25 0  0.3 0.25 0  0.35 0.25 0  0.4 0.25 0  0.45 0.25 0  0.5 0.25 0  0.55 0.25 0  0.6 0.25 0  0.65 0.25 0  0.7 0.25 0  0.75 0.25 0  0.8 0.25 0  0.85 0.25 0  0.9 0.25 0  0.95 0.25 0  1 0.25 0  0 0.3 0  0.05 0.3 0  0.1 0.3 0  0.15 0.3 0  0.2 0.3 0  0.25 0.3 0  0.3 0.3 0  0.35 0.3 0  0.4 0.3 0  0.45 0.3 0  0.5 0.3 0  0.55 0.3 0  0.6 0.3 0  0.65 0.3 0  0.7 0.3 0  0.75 0.3 0  0.8 0.3 0  0.85 0.3 0  0.9 0.3 0  0.95 0.3 0  1 0.3 0  0 0.35 0  0.05 0.35 0  0.1 0.35 0  0.15 0.35 0  0.2 0.35 0  0.25 0.35 0  0.3 0.35 0  0.35 0.35 0  0.4 0.35 0  0.45 0.35 0  0.5 0.35 0  0.55 0.35 0  0.6 0.35 0  0.65 0.35 0  0.7 0.35 0  0.75 0.35 0  0.8 0.35 0  0.85 0.35 0  0.9 0.35 0  0.95 0.35 0  1 0.35 0  0 0.4 0  0.05 0.4 0  0.1 0.4 0  0.15 0.4 0  0.2 0.4 0  0.25 0.4 0  0.3 0.4 0  0.35 0.4 0  0.4 0.4 0  0.45 0.4 0  0.5 0.4 0  0.55 0.4 0  0.6 0.4 0  0.65 0.4 0  0.7 0.4 0  0.75 0.4 0  0.8 0.4 0  0.85 0.4 0  0.9 0.4 0  0.95 0.4 0  1 0.4 0  0 0.45 0  0.05 0.45 0  0.1 0.45 0  0.15 0.45 0  0.2 0.45 0  0.25 0.45 0  0.3 0.45 0  0.35 0.45 0  0.4 0.45 0  0.45 0.45 0  0.5 0.45 0  0.55 0.45 0  0.6 0.45 0  0.65 0.45 0  0.7 0.45 0  0.75 0.45 0  0.8 0.45 0  0.85 0.45 0  0.9 0.45 0  0.95 0.45 0  1 0.45 0  0 0.5 0  0.05 0.5 0  0.1 0.5 0  0.15 0.5 0  0.2 0.5 0  0.25 0.5 0  0.3 0.5 0  0.35 0.5 0  0.4 0.5 0  0.45 0.5 0  0.5 0.5 0  0.55 0.5 0  0.6 0.5 0  0.65 0.5 0  0.7 0.5 0  0.75 0.5 0  0.8 0.5 0  0.85 0.5 0  0.9 0.5 0  0.95 0.5 0  1 0.5 0  0 0.55 0  0.05 0.55 0  0.1 0.55 0  0.15 0.55 0  0.2 0.55 0  0.25 0.55 0  0.3 0.55 0  0.35 0.55 0  0.4 0.55 0  0.45 0.55 0  0.5 0.55 0  0.55 0.55 0  0.6 0.55 0  0.65 0.55 0  0.7 0.55 0  0.75 0.55 0  0.8 0.55 0  0.85 0.55 0  0.9 0.55 0  0.95 0.55 0  1 0.55 0  0 0.6 0  0.05 0.6 0  0.1 0.6 0  0.15 0.6 0  0.2 0.6 0  0.25 0.6 0  0.3 0.6 0  0.35 0.6 0  0.4 0.6 0  0.45 0.6 0  0.5 0.6 0  0.55 0.6 0  0.6 0.6 0  0.65 0.6 0  0.7 0.6 0  0.75 0.6 0  0.8 0.6 0  0.85 0.6 0  0.9 0.6 0  0.95 0.6 0  1 0.6 0  0 0.65 0  0.05 0.65 0  0.1 0.65 0  0.15 0.65 0  0.2 0.65 0  0.25 0.65 0  0.3 0.65 0  0.35 0.65 0  0.4 0.65 0  0.45 0.65 0  0.5 0.65 0  0.55 0.65 0  0.6 0.65 0  0.65 0.65 0  0.7 0.65 0  0.75 0.65 0  0.8 0.65 0  0.85 0.65 0  0.9 0.65 0  0.95 0.65 0  1 0.65 0  0 0.7 0  0.05 0.7 0  0.1 0.7 0  0.15 0.7 0  0.2 0.7 0  0.25 0.7 0  0.3 0.7 0  0.35 0.7 0  0.4 0.7 0  0.45 0.7 0  0.5 0.7 0  0.55 0.7 0  0.6 0.7 0  0.65 0.7 0  0.7 0.7 0  0.75 0.7 0  0.8 0.7 0  0.85 0.7 0  0.9 0.7 0  0.95 0.7 0  1 0.7 0  0 0.75 0  0.05 0.75 0  0.1 0.75 0  0.15 0.75 0  0.2 0.75 0  0.25 0.75 0  0.3 0.75 0  0.35 0.75 0  0.4 0.75 0  0.45 0.75 0  0.5 0.75 0  0.55 0.75 0  0.6 0.75 0  0.65 0.75 0  0.7 0.75 0  0.75 0.75 0  0.8 0.75 0  0.85 0.75 0  0.9 0.75 0  0.95 0.75 0  1 0.75 0  0 0.8 0  0.05 0.8 0  0.1 0.8 0  0.15 0.8 0  0.2 0.8 0  0.25 0.8 0  0.3 0.8 0  0.35 0.8 0  0.4 0.8 0  0.45 0.8 0  0.5 0.8 0  0.55 0.8 0  0.6 0.8 0  0.65 0.8 0  0.7 0.8 0  0.75 0.8 0  0.8 0.8 0  0.85 0.8 0  0.9 0.8 0  0.95 0.8 0  1 0.8 0  0 0.85 0  0.05 0.85 0  0.1 0.85 0  0.15 0.85 0  0.2 0.85 0  0.25 0.85 0  0.3 0.85 0  0.35 0.85 0  0.4 0.85 0  0.45 0.85 0  0.5 0.85 0  0.55 0.85 0  0.6 0.85 0  0.65 0.85 0  0.7 0.85 0  0.75 0.85 0  0.8 0.85 0  0.85 0.85 0  0.9 0.85 0  0.95 0.85 0  1 0.85 0  0 0.9 0  0.05 0.9 0  0.1 0.9 0  0.15 0.9 0  0.2 0.9 0  0.25 0.9 0  0.3 0.9 0  0.35 0.9 0  0.4 0.9 0  0.45 0.9 0  0.5 0.9 0  0.55 0.9 0  0.6 0.9 0  0.65 0.9 0  0.7 0.9 0  0.75 0.9 0  0.8 0.9 0  0.85 0.9 0  0.9 0.9 0  0.95 0.9 0  1 0.9 0  0 0.95 0  0.05 0.95 0  0.1 0.95 0  0.15 0.95 0  0.2 0.95 0  0.25 0.95 0  0.3 0.95 0  0.35 0.95 0  0.4 0.95 0  0.45 0.95 0  0.5 0.95 0  0.55 0.95 0  0.6 0.95 0  0.65 0.95 0  0.7 0.95 0  0.75 0.95 0  0.8 0.95 0  0.85 0.95 0  0.9 0.95 0  0.95 0.95 0  1 0.95 0  0 1 0  0.05 1 0  0.1 1 0  0.15 1 0  0.2 1 0  0.25 1 0  0.3 1 0  0.35 1 0  0.4 1 0  0.45 1 0  0.5 1 0  0.55 1 0  0.6 1 0  0.65 1 0  0.7 1 0  0.75 1 0  0.8 1 0  0.85 1 0  0.9 1 0  0.95 1 0  1 1 0  </DataArray>
</Points>
<Cells>
[...]
<PointData  Vectors="f_137"> 
<DataArray  type="Float64"  Name="f_137"  NumberOfComponents="3" format="ascii">0.0000000000000000e+00 0.0000000000000000e+00 0.0000000000000000e+00  0.0000000000000000e+00 0.0000000000000000e+00 0.0000000000000000e+00  0.0000000000000000e+00 0.0000000000000000e+00 0.0000000000000000e+00  0.0000000000000000e+00 0.0000000000000000e+00 0.0000000000000000e+00  0.0000000000000000e+00 0.0000000000000000e+00 0.0000000000000000e+00  0.0000000000000000e+00 0.0000000000000000e+00 0.0000000000000000e+00  0.0000000000000000e+00 0.0000000000000000e+00 0.0000000000000000e+00  0.0000000000000000e+00 0.0000000000000000e+00 0.0000000000000000e+00  0.0000000000000000e+00 0.0000000000000000e+00 0.0000000000000000e+00  0.0000000000000000e+00 0.0000000000000000e+00 0.0000000000000000e+00  0.0000000000000000e+00 0.0000000000000000e+00 0.0000000000000000e+00  0.0000000000000000e+00 0.0000000000000000e+00 0.0000000000000000e+00  0.0000000000000000e+00 0.0000000000000000e+00 0.0000000000000000e+00  0.0000000000000000e+00 0.0000000000000000e+00 0.0000000000000000e+00  0.0000000000000000e+00 0.0000000000000000e+00 0.0000000000000000e+00  0.0000000000000000e+00 0.0000000000000000e+00 0.0000000000000000e+00  0.0000000000000000e+00 0.0000000000000000e+00 0.0000000000000000e+00  0.0000000000000000e+00 0.0000000000000000e+00 0.0000000000000000e+00  0.0000000000000000e+00 0.0000000000000000e+00 0.0000000000000000e+00  0.0000000000000000e+00 0.0000000000000000e+00 0.0000000000000000e+00  0.0000000000000000e+00 0.0000000000000000e+00 0.0000000000000000e+00  0.0000000000000000e+00 0.0000000000000000e+00 0.0000000000000000e+00  -8.3529357487388013e-04 8.2729356057974560e-04 0.0000000000000000e+00  -2.2352982844246680e-03 8.9581165443478712e-04 0.0000000000000000e+00  -3.6155864420082083e-03 8.4747196297466651e-04 0.0000000000000000e+00  -4.9023399996300267e-03 7.7988766810053122e-04 0.0000000000000000e+00  -6.0655154847402771e-03 6.9254771557392646e-04 0.0000000000000000e+00  -7.0746592161572419e-03 5.8745477112717563e-04 0.0000000000000000e+00  -7.9038496802477549e-03 4.6678576577685875e-04 0.0000000000000000e+00  -8.5309369077293667e-03 3.3296589204881384e-04 0.0000000000000000e+00  -8.9380014378990184e-03 1.8867837921720859e-04 0.0000000000000000e+00  -9.1116953033855679e-03 3.6883334855765822e-05 0.0000000000000000e+00  -9.0436337358885555e-03 -1.1911641563615976e-04 0.0000000000000000e+00  -8.7308944685059696e-03 -2.7560127092659528e-04 0.0000000000000000e+00  -8.1766124025202478e-03 -4.2838613723847655e-04 0.0000000000000000e+00  -7.3906290190548819e-03 -5.7283974282006263e-04 0.0000000000000000e+00  -6.3899978212126939e-03 -7.0398897874615271e-04 0.0000000000000000e+00  -5.1993827366908505e-03 -8.1682370192174213e-04 0.0000000000000000e+00  -3.8506250186197090e-03 -9.0630259120242946e-04 0.0000000000000000e+00  -2.3881730601983844e-03 -9.6036551387118912e-04 0.0000000000000000e+00  -8.8111307471657103e-04 -8.7988026623623877e-04 0.0000000000000000e+00  0.0000000000000000e+00 0.0000000000000000e+00 0.0000000000000000e+00  0.0000000000000000e+00 0.0000000000000000e+00 0.0000000000000000e+00  -9.5652783768038218e-04 2.2609393696070958e-03 0.0000000000000000e+00  -2.5300458327373915e-03 2.4194195940865069e-03 0.0000000000000000e+00  -4.0735970723373253e-03 2.2982382842936539e-03 0.0000000000000000e+00  -5.5162274170449136e-03 2.1129059701142051e-03 0.0000000000000000e+00  -6.8184533817032137e-03 1.8740561883985774e-03 0.0000000000000000e+00  -7.9473113076059150e-03 1.5874812168478083e-03 0.0000000000000000e+00  -8.8741462928186177e-03 1.2594150753149056e-03 0.0000000000000000e+00  -9.5747125156734354e-03 8.9672789119139319e-04 0.0000000000000000e+00  -1.0029528690559977e-02 5.0682302343590274e-04 0.0000000000000000e+00  -1.0224087405752588e-02 9.7706904594071906e-05 0.0000000000000000e+00  -1.0149194160850245e-02 -3.2183545031555267e-04 0.0000000000000000e+00  -9.8014639596568556e-03 -7.4202532986208285e-04 0.0000000000000000e+00  -9.1839895367871981e-03 -1.1519266036350618e-03 0.0000000000000000e+00  -8.3071382908385134e-03 -1.5394420469819724e-03 0.0000000000000000e+00  -7.1892088613904354e-03 -1.8915684385964829e-03 0.0000000000000000e+00  -5.8574839404081985e-03 -2.1949422833809407e-03 0.0000000000000000e+00  -4.3467690391647395e-03 -2.4363443690088252e-03 0.0000000000000000e+00  -2.7061337573742721e-03 -2.5874772143819457e-03 0.0000000000000000e+00  -1.0206427329186865e-03 -2.4259249064154508e-03 0.0000000000000000e+00  0.0000000000000000e+00 0.0000000000000000e+00 0.0000000000000000e+00  0.0000000000000000e+00 0.0000000000000000e+00 0.0000000000000000e+00  -1.0035594380945953e-03 3.7916827501263905e-03 0.0000000000000000e+00  -2.6665347690143846e-03 4.0397945227847419e-03 0.0000000000000000e+00  -4.2962883711326521e-03 3.8379729569194298e-03 0.0000000000000000e+00  -5.8196569578118041e-03 3.5269387147858710e-03 0.0000000000000000e+00  -7.1948541587608687e-03 3.1267689672508240e-03 0.0000000000000000e+00  -8.3880656535031250e-03 2.6473917013944211e-03 0.0000000000000000e+00  -9.3695545685021243e-03 2.0996210691557071e-03 0.0000000000000000e+00  -1.0114369849999236e-02 1.4950104563660113e-03 0.0000000000000000e+00  -1.0602310057419755e-02 8.4577551312050149e-04 0.0000000000000000e+00  -1.0817984012737442e-02 1.6494228466806875e-04 0.0000000000000000e+00  -1.0751032859992156e-02 -5.3330667756242565e-04 0.0000000000000000e+00  -1.0396614869199234e-02 -1.2331819516887205e-03 0.0000000000000000e+00  -9.7562056262858951e-03 -1.9168964690633129e-03 0.0000000000000000e+00  -8.8386858814666694e-03 -2.5645345398746483e-03 0.0000000000000000e+00  -7.6614297363573848e-03 -3.1543674301485755e-03 0.0000000000000000e+00  -6.2518170530116712e-03 -3.6637323823319988e-03 0.0000000000000000e+00  -4.6458828443467423e-03 -4.0697145629076444e-03 0.0000000000000000e+00  -2.8964972672368239e-03 -4.3288091063440459e-03 0.0000000000000000e+00  -1.0930718777100122e-03 -4.0740395827065677e-03 0.0000000000000000e+00  0.0000000000000000e+00 0.0000000000000000e+00 0.0000000000000000e+00  0.0000000000000000e+00 0.0000000000000000e+00 0.0000000000000000e+00  -1.0786315165885502e-03 5.4177957204535982e-03 0.0000000000000000e+00  -2.8657277714883508e-03 5.7661160372126678e-03 0.0000000000000000e+00  -4.6171268229981697e-03 5.4785878334456797e-03 0.0000000000000000e+00  -6.2534419483871225e-03 5.0337644113955162e-03 0.0000000000000000e+00  -7.7304041719064732e-03 4.4623045010499856e-03 0.0000000000000000e+00  -9.0127423545633602e-03 3.7790593565734591e-03 0.0000000000000000e+00  -1.0069714279317013e-02 2.9997052483358060e-03 0.0000000000000000e+00  -1.0875726563416488e-02 2.1405900341193939e-03 0.0000000000000000e+00  -1.1409891740917461e-02 1.2186093165223709e-03 0.0000000000000000e+00  -1.1655791377305618e-02 2.5145475923435152e-04 0.0000000000000000e+00  -1.1601457258126582e-02 -7.4176053295072722e-04 0.0000000000000000e+00  -1.1239790402365727e-02 -1.7396502433453763e-03 0.0000000000000000e+00  -1.0569534361889432e-02 -2.7177297047172640e-03 0.0000000000000000e+00  -9.5968198505677182e-03 -3.6479468194921660e-03 0.0000000000000000e+00  -8.3369278536090715e-03 -4.4989111908222239e-03 0.0000000000000000e+00  -6.8167523261921216e-03 -5.2370615935883776e-03 0.0000000000000000e+00  -5.0738466656379284e-03 -5.8280128468791948e-03 0.0000000000000000e+00  -3.1664310506777349e-03 -6.2096908769971731e-03 0.0000000000000000e+00  -1.1946756430813422e-03 -5.8575220887754856e-03 0.0000000000000000e+00  0.0000000000000000e+00 0.0000000000000000e+00 0.0000000000000000e+00  0.0000000000000000e+00 0.0000000000000000e+00 0.0000000000000000e+00  -1.1819046526441032e-03 7.1842479553545597e-03 0.0000000000000000e+00  -3.1394420791403871e-03 7.6396385676574573e-03 0.0000000000000000e+00  -5.0568618173753082e-03 7.2575074484788719e-03 0.0000000000000000e+00  -6.8464032010345788e-03 6.6664991870561321e-03 0.0000000000000000e+00  -8.4606916479494105e-03 5.9092989873577055e-03 0.0000000000000000e+00  -9.8625696508185430e-03 5.0064744694945113e-03 0.0000000000000000e+00  -1.1020437503155862e-02 3.9791587230491561e-03 0.0000000000000000e+00  -1.1908360734908315e-02 2.8487021507189124e-03 0.0000000000000000e+00  -1.2505071418434027e-02 1.6364250277618275e-03 0.0000000000000000e+00  -1.2793176363387679e-02 3.6403133202246292e-04 0.0000000000000000e+00  -1.2758700983734540e-02 -9.4532979405017085e-04 0.0000000000000000e+00  -1.2391315683978672e-02 -2.2655570814432658e-03 0.0000000000000000e+00  -1.1685479036457006e-02 -3.5659995194728495e-03 0.0000000000000000e+00  -1.0642618199818848e-02 -4.8102751878342223e-03 0.0000000000000000e+00  -9.2739642784331940e-03 -5.9560986987920572e-03 0.0000000000000000e+00  -7.6046025646545699e-03 -6.9566442784979613e-03 0.0000000000000000e+00  -5.6734576424138381e-03 -7.7626590605645585e-03 0.0000000000000000e+00  -3.5463472173612792e-03 -8.2887297016426935e-03 0.0000000000000000e+00  -1.3384649440486549e-03 -7.8326968401727804e-03 0.0000000000000000e+00  0.0000000000000000e+00 0.0000000000000000e+00 0.0000000000000000e+00  0.0000000000000000e+00 0.0000000000000000e+00 0.0000000000000000e+00  -1.3168499458872480e-03 9.1368069007001750e-03 0.0000000000000000e+00  -3.4966145721697216e-03 9.7086213246392883e-03 0.0000000000000000e+00  -5.6288513033457988e-03 9.2197303921203733e-03 0.0000000000000000e+00  -7.6152680612089308e-03 8.4652330500929376e-03 0.0000000000000000e+00  -9.4044094320801692e-03 7.5022462766735215e-03 0.0000000000000000e+00  -1.0957198998890392e-02 6.3586035648319468e-03 0.0000000000000000e+00  -1.2241756402531990e-02 5.0619139430110732e-03 0.0000000000000000e+00  -1.3232699887005161e-02 3.6388514892841512e-03 0.0000000000000000e+00  -1.3909257575266147e-02 2.1147411379336656e-03 0.0000000000000000e+00  -1.4253566949256617e-02 5.1420587058966329e-04 0.0000000000000000e+00  -1.4249462417008630e-02 -1.1371331099815944e-03 0.0000000000000000e+00  -1.3882256941333059e-02 -2.8101399697906659e-03 0.0000000000000000e+00  -1.3139947317932882e-02 -4.4692817329130257e-03 0.0000000000000000e+00  -1.2016183160242689e-02 -6.0700994016920501e-03 0.0000000000000000e+00  -1.0514689525950516e-02 -7.5580055643553910e-03 0.0000000000000000e+00  -8.6559080227685391e-03 -8.8694714817609543e-03 0.0000000000000000e+00  -6.4789496985246126e-03 -9.9350756339045294e-03 0.0000000000000000e+00  -4.0592340540947158e-03 -1.0638505433821912e-02 0.0000000000000000e+00  -1.5334400156457690e-03 -1.0071477734656996e-02 0.0000000000000000e+00  0.0000000000000000e+00 0.0000000000000000e+00 0.0000000000000000e+00  0.0000000000000000e+00 0.0000000000000000e+00 0.0000000000000000e+00  -1.4883586230736471e-03 1.1328716008756177e-02 0.0000000000000000e+00  -3.9496141825953969e-03 1.2027427467720352e-02 0.0000000000000000e+00  -6.3516129593571358e-03 1.1414082544606302e-02 0.0000000000000000e+00  -8.5825122252735815e-03 1.0471855039029858e-02 0.0000000000000000e+00  -1.0585857558665028e-02 9.2758657401808119e-03 0.0000000000000000e+00  -1.2321108427797154e-02 7.8636210241543551e-03 0.0000000000000000e+00  -1.3757449712523974e-02 6.2707985978201668e-03 0.0000000000000000e+00  -1.4871880281891969e-02 4.5299106304430891e-03 0.0000000000000000e+00  -1.5645928195545850e-02 2.6696353348946381e-03 0.0000000000000000e+00  -1.6062549551992652e-02 7.1577658856414913e-04 0.0000000000000000e+00  -1.6103679550994648e-02 -1.3061595191367072e-03 0.0000000000000000e+00  -1.5749123906037398e-02 -3.3670030463584426e-03 0.0000000000000000e+00  -1.4977490104538371e-02 -5.4290380680360314e-03 0.0000000000000000e+00  -1.3769929247576685e-02 -7.4410918560670405e-03 0.0000000000000000e+00  -1.2116732748740902e-02 -9.3350985350552172e-03 0.0000000000000000e+00  -1.0028115170940981e-02 -1.1026183387839644e-02 0.0000000000000000e+00  -7.5399982348437027e-03 -1.2416584216582071e-02 0.0000000000000000e+00  -4.7392404873077033e-03 -1.3347045413616735e-02 0.0000000000000000e+00  -1.7930021990927162e-03 -1.2663068135063115e-02 0.0000000000000000e+00  0.0000000000000000e+00 0.0000000000000000e+00 0.0000000000000000e+00  0.0000000000000000e+00 0.0000000000000000e+00 0.0000000000000000e+00  -1.7036003760246253e-03 1.3822239858470567e-02 0.0000000000000000e+00  -4.5163839277542169e-03 1.4658564291489734e-02 0.0000000000000000e+00  -7.2512903385726418e-03 1.3895270350953571e-02 0.0000000000000000e+00  -9.7789934337336928e-03 1.2731397375086079e-02 0.0000000000000000e+00  -1.2037224950908013e-02 1.1265544698027818e-02 0.0000000000000000e+00  -1.3985215538739566e-02 9.5487124772223406e-03 0.0000000000000000e+00  -1.5595812595191957e-02 7.6271104404425872e-03 0.0000000000000000e+00  -1.6851657939745818e-02 5.5398710636530100e-03 0.0000000000000000e+00  -1.7739806022138815e-02 3.3180612581336696e-03 0.0000000000000000e+00  -1.8246580689806540e-02 9.8605491742848896e-04 0.0000000000000000e+00  -1.8353252618986154e-02 -1.4347952205726266e-03 0.0000000000000000e+00  -1.8033315391837446e-02 -3.9203178715418495e-03 0.0000000000000000e+00  -1.7252349799573574e-02 -6.4357497292250694e-03 0.0000000000000000e+00  -1.5972084059883953e-02 -8.9269067368399121e-03 0.0000000000000000e+00  -1.4159558172014844e-02 -1.1312400124091562e-02 0.0000000000000000e+00  -1.1804194406785146e-02 -1.3480375318085278e-02 0.0000000000000000e+00  -8.9308099729271447e-03 -1.5292176322719425e-02 0.0000000000000000e+00  -5.6383841192777714e-03 -1.6525797377784476e-02 0.0000000000000000e+00  -2.1376736155175624e-03 -1.5722579780447148e-02 0.0000000000000000e+00  0.0000000000000000e+00 0.0000000000000000e+00 0.0000000000000000e+00  0.0000000000000000e+00 0.0000000000000000e+00 0.0000000000000000e+00  -1.9733098832166473e-03 1.6693052034391958e-02 0.0000000000000000e+00  -5.2232242287239506e-03 1.7676177751458116e-02 0.0000000000000000e+00  -8.3653126404502221e-03 1.6725403375784220e-02 0.0000000000000000e+00  -1.1247548559543828e-02 1.5291653752889888e-02 0.0000000000000000e+00  -1.3801345867308891e-02 1.3505505696029532e-02 0.0000000000000000e+00  -1.5988353394956179e-02 1.1437380323774997e-02 0.0000000000000000e+00  -1.7789671411727437e-02 9.1476745926071332e-03 0.0000000000000000e+00  -1.9198982870378179e-02 6.6832390410394519e-03 0.0000000000000000e+00  -2.0214144785118446e-02 4.0761445351069417e-03 0.0000000000000000e+00  -2.0829298983226715e-02 1.3456283927816908e-03 0.0000000000000000e+00  -2.1027966899800622e-02 -1.4970126018625262e-03 0.0000000000000000e+00  -2.0777597950135666e-02 -4.4404289442734769e-03 0.0000000000000000e+00  -2.0026969738351750e-02 -7.4617948130285298e-03 0.0000000000000000e+00  -1.8709244075986772e-02 -1.0512409324272153e-02 0.0000000000000000e+00  -1.6752526813271218e-02 -1.3501913832298386e-02 0.0000000000000000e+00  -1.4105533285843059e-02 -1.6285760365110799e-02 0.0000000000000000e+00  -1.0764425968041873e-02 -1.8664678651640187e-02 0.0000000000000000e+00  -6.8377278592197293e-03 -2.0320569613171406e-02 0.0000000000000000e+00  -2.5997121846785668e-03 -1.9405137243437974e-02 0.0000000000000000e+00  0.0000000000000000e+00 0.0000000000000000e+00 0.0000000000000000e+00  0.0000000000000000e+00 0.0000000000000000e+00 0.0000000000000000e+00  -2.3139840434251179e-03 2.0036851591976719e-02 0.0000000000000000e+00  -6.1096281624988848e-03 2.1170910559393956e-02 0.0000000000000000e+00  -9.7484017940287736e-03 1.9975987712896312e-02 0.0000000000000000e+00  -1.3048607728040527e-02 1.8202354012413231e-02 0.0000000000000000e+00  -1.5935803157687334e-02 1.6025837364509025e-02 0.0000000000000000e+00  -1.8379305168288597e-02 1.3545285027516193e-02 0.0000000000000000e+00  -2.0376242356957914e-02 1.0840396274795485e-02 0.0000000000000000e+00  -2.1939794172373142e-02 7.9670256463831666e-03 0.0000000000000000e+00  -2.3086634575159498e-02 4.9562306683998032e-03 0.0000000000000000e+00  -2.3825767935606378e-02 1.8171802439493289e-03 0.0000000000000000e+00  -2.4148385099545054e-02 -1.4566620042864079e-03 0.0000000000000000e+00  -2.4018616677343323e-02 -4.8777998822612479e-03 0.0000000000000000e+00  -2.3367123471152114e-02 -8.4506498300595048e-03 0.0000000000000000e+00  -2.2088173477935152e-02 -1.2150130099390952e-02 0.0000000000000000e+00  -2.0045711042306676e-02 -1.5889422869096673e-02 0.0000000000000000e+00  -1.7111523987445466e-02 -1.9486579630481171e-02 0.0000000000000000e+00  -1.3217310070862704e-02 -2.2654774878000047e-02 0.0000000000000000e+00  -8.4690858101839784e-03 -2.4927639533214595e-02 0.0000000000000000e+00  -3.2337162635913772e-03 -2.3933462257047133e-02 0.0000000000000000e+00  0.0000000000000000e+00 0.0000000000000000e+00 0.0000000000000000e+00  0.0000000000000000e+00 0.0000000000000000e+00 0.0000000000000000e+00  -2.7518866181810643e-03 2.3980141969451859e-02 0.0000000000000000e+00  -7.2367173113973273e-03 2.5257264334855915e-02 0.0000000000000000e+00  -1.1482567755380190e-02 2.3730188080505640e-02 0.0000000000000000e+00  -1.5269051052528954e-02 2.1512749529513910e-02 0.0000000000000000e+00  -1.8518981365265995e-02 1.8846962642264303e-02 0.0000000000000000e+00  -2.1219540357360886e-02 1.5873326310694619e-02 0.0000000000000000e+00  -2.3396772159632602e-02 1.2697249010505113e-02 0.0000000000000000e+00  -2.5095970691266078e-02 9.3843973377052432e-03 0.0000000000000000e+00  -2.6363869219410415e-02 5.9616928987658536e-03 0.0000000000000000e+00  -2.7234191799008958e-02 2.4223123317388268e-03 0.0000000000000000e+00  -2.7714481168012207e-02 -1.2670897678017227e-03 0.0000000000000000e+00  -2.7774781298178272e-02 -5.1582110718675226e-03 0.0000000000000000e+00  -2.7332879758284481e-02 -9.3073883141403906e-03 0.0000000000000000e+00  -2.6229978277280578e-02 -1.3739404029008605e-02 0.0000000000000000e+00  -2.4234680929128099e-02 -1.8392792970653736e-02 0.0000000000000000e+00  -2.1090511914107928e-02 -2.3072374894185201e-02 0.0000000000000000e+00  -1.6583947904731691e-02 -2.7396824976725728e-02 0.0000000000000000e+00  -1.0760638273364296e-02 -3.0645763663117144e-02 0.0000000000000000e+00  -4.1287918697120356e-03 -2.9657220121657484e-02 0.0000000000000000e+00  0.0000000000000000e+00 0.0000000000000000e+00 0.0000000000000000e+00  0.0000000000000000e+00 0.0000000000000000e+00 0.0000000000000000e+00  -3.3306411108918262e-03 2.8698261924029120e-02 0.0000000000000000e+00  -8.7023654691274262e-03 3.0084774910814776e-02 0.0000000000000000e+00  -1.3693979613111865e-02 2.8084752488542947e-02 0.0000000000000000e+00  -1.8036010698528754e-02 2.5265901245453963e-02 0.0000000000000000e+00  -2.1658496989961664e-02 2.1969776759652625e-02 0.0000000000000000e+00  -2.4586329033255926e-02 1.8396720918897068e-02 0.0000000000000000e+00  -2.6895503261419571e-02 1.4684038726816581e-02 0.0000000000000000e+00  -2.8681241925960235e-02 1.0905639149802153e-02 0.0000000000000000e+00  -3.0034433460390159e-02 7.0791107067718498e-03 0.0000000000000000e+00  -3.1025309589321017e-02 3.1749863565234794e-03 0.0000000000000000e+00  -3.1691479228289493e-02 -8.7715694604438923e-04 0.0000000000000000e+00  -3.2027900502221963e-02 -5.1846905801987741e-03 0.0000000000000000e+00  -3.1940862568979732e-02 -9.8685385765191740e-03 0.0000000000000000e+00  -3.1223445386111479e-02 -1.5027405647916317e-02 0.0000000000000000e+00  -2.9577779470495998e-02 -2.0745987231869982e-02 0.0000000000000000e+00  -2.6497639195156526e-02 -2.6982823823540201e-02 0.0000000000000000e+00  -2.1386507925019886e-02 -3.3176580259568357e-02 0.0000000000000000e+00  -1.4084018820526723e-02 -3.7991938267621282e-02 0.0000000000000000e+00  -5.4034106637753151e-03 -3.7043325185378208e-02 0.0000000000000000e+00  0.0000000000000000e+00 0.0000000000000000e+00 0.0000000000000000e+00  0.0000000000000000e+00 0.0000000000000000e+00 0.0000000000000000e+00  -4.1263965663835764e-03 3.4446501477395114e-02 0.0000000000000000e+00  -1.0669167920887238e-02 3.5855309769054523e-02 0.0000000000000000e+00  -1.6581922805956200e-02 3.3149331717031209e-02 0.0000000000000000e+00  -2.1537838216308575e-02 2.9485815877502874e-02 0.0000000000000000e+00  -2.5501691948402124e-02 2.5358192325167579e-02 0.0000000000000000e+00  -2.8574839622931052