<?xml version="1.0"?>
<VTKFile type="UnstructuredGrid"  version="0.1"  >
<UnstructuredGrid>
<Piece  NumberOfPoints="441" NumberOfCells="800">
<Points>
<DataArray  type="Float64"  NumberOfComponents="3"  format="ascii">0 0 0  0.05 0 0  0.1 0 0  0.15 0 0  0.2 0 0  0.25 0 0  0.3 0 0  0.35 0 0  0.4 0 0  0.45 0 0  0.5 0 0  0.55 0 0  0.6 0 0  0.65 0 0  0.7 0 0  0.75 0 0  0.8 0 0  0.85 0 0  0.9 0 0  0.95 0 0  1 0 0  0 0.05 0  0.05 0.05 0  0.1 0.05 0  0.15 0.05 0  0.2 0.05 0  0.25 0.05 0  0.3 0.05 0  0.35 0.05 0  0.4 0.05 0  0.45 0.05 0  0.5 0.05 0  0.55 0.05 0  0.6 0.05 0  0.65 0.05 0  0.7 0.05 0  0.75 0.05 0  0.8 0.05 0  0.85 0.05 0  0.9 0.05 0  0.95 0.05 0  1 0.05 0  0 0.1 0  0.05 0.1 0  0.1 0.1 0  0.15 0.1 0  0.2 0.1 0  0.25 0.1 0  0.3 0.1 0  0.35 0.1 0  0.4 0.1 0  0.45 0.1 0  0.5 0.1 0  0.55 0.1 0  0.6 0.1 0  0.65 0.1 0  0.7 0.1 0  0.75 0.1 0  0.8 0.1 0  0.85 0.1 0  0.9 0.1 0  0.95 0.1 0  1 0.1 0  0 0.15 0  0.05 0.15 0  0.1 0.15 0  0.15 0.15 0  0.2 0.15 0  0.25 0.15 0  0.3 0.15 0  0.35 0.15 0  0.4 0.15 0  0.45 0.15 0  0.5 0.15 0  0.55 0.15 0  0.6 0.15 0  0.65 0.15 0  0.7 0.15 0  0.75 0.15 0  0.8 0.15 0  0.85 0.15 0  0.9 0.15 0  0.95 0.15 0  1 0.15 0  0 0.2 0  0.05 0.2 0  0.1 0.2 0  0.15 0.2 0  0.2 0.2 0  0.25 0.2 0  0.3 0.2 0  0.35 0.2 0  0.4 0.2 0  0.45 0.2 0  0.5 0.2 0  0.55 0.2 0  0.6 0.2 0  0.65 0.2 0  0.7 0.2 0  0.75 0.2 0  0.8 0.2 0  0.85 0.2 0  0.9 0.2 0  0.95 0.2 0  1 0.2 0  0 0.25 0  0.05 0.25 0  0.1 0.25 0  0.15 0.25 0  0.2 0.25 0  0.25 0.25 0  0.3 0.25 0  0.35 0.25 0  0.4 0.25 0  0.45 0.25 0  0.5 0.25 0  0.55 0.25 0  0.6 0.25 0  0.65 0.25 0  0.7 0.25 0  0.75 0.25 0  0.8 0.25 0  0.85 0.25 0  0.9 0.25 0  0.95 0.25 0  1 0.25 0  0 0.3 0  0.05 0.3 0  0.1 0.3 0  0.15 0.3 0  0.2 0.3 0  0.25 0.3 0  0.3 0.3 0  0.35 0.3 0  0.4 0.3 0  0.45 0.3 0  0.5 0.3 0  0.55 0.3 0  0.6 0.3 0  0.65 0.3 0  0.7 0.3 0  0.75 0.3 0  0.8 0.3 0  0.85 0.3 0  0.9 0.3 0  0.95 0.3 0  1 0.3 0  0 0.35 0  0.05 0.35 0  0.1 0.35 0  0.15 0.35 0  0.2 0.35 0  0.25 0.35 0  0.3 0.35 0  0.35 0.35 0  0.4 0.35 0  0.45 0.35 0  0.5 0.35 0  0.55 0.35 0  0.6 0.35 0  0.65 0.35 0  0.7 0.35 0  0.75 0.35 0  0.8 0.35 0  0.85 0.35 0  0.9 0.35 0  0.95 0.35 0  1 0.35 0  0 0.4 0  0.05 0.4 0  0.1 0.4 0  0.15 0.4 0  0.2 0.4 0  0.25 0.4 0  0.3 0.4 0  0.35 0.4 0  0.4 0.4 0  0.45 0.4 0  0.5 0.4 0  0.55 0.4 0  0.6 0.4 0  0.65 0.4 0  0.7 0.4 0  0.75 0.4 0  0.8 0.4 0  0.85 0.4 0  0.9 0.4 0  0.95 0.4 0  1 0.4 0  0 0.45 0  0.05 0.45 0  0.1 0.45 0  0.15 0.45 0  0.2 0.45 0  0.25 0.45 0  0.3 0.45 0  0.35 0.45 0  0.4 0.45 0  0.45 0.45 0  0.5 0.45 0  0.55 0.45 0  0.6 0.45 0  0.65 0.45 0  0.7 0.45 0  0.75 0.45 0  0.8 0.45 0  0.85 0.45 0  0.9 0.45 0  0.95 0.45 0  1 0.45 0  0 0.5 0  0.05 0.5 0  0.1 0.5 0  0.15 0.5 0  0.2 0.5 0  0.25 0.5 0  0.3 0.5 0  0.35 0.5 0  0.4 0.5 0  0.45 0.5 0  0.5 0.5 0  0.55 0.5 0  0.6 0.5 0  0.65 0.5 0  0.7 0.5 0  0.75 0.5 0  0.8 0.5 0  0.85 0.5 0  0.9 0.5 0  0.95 0.5 0  1 0.5 0  0 0.55 0  0.05 0.55 0  0.1 0.55 0  0.15 0.55 0  0.2 0.55 0  0.25 0.55 0  0.3 0.55 0  0.35 0.55 0  0.4 0.55 0  0.45 0.55 0  0.5 0.55 0  0.55 0.55 0  0.6 0.55 0  0.65 0.55 0  0.7 0.55 0  0.75 0.55 0  0.8 0.55 0  0.85 0.55 0  0.9 0.55 0  0.95 0.55 0  1 0.55 0  0 0.6 0  0.05 0.6 0  0.1 0.6 0  0.15 0.6 0  0.2 0.6 0  0.25 0.6 0  0.3 0.6 0  0.35 0.6 0  0.4 0.6 0  0.45 0.6 0  0.5 0.6 0  0.55 0.6 0  0.6 0.6 0  0.65 0.6 0  0.7 0.6 0  0.75 0.6 0  0.8 0.6 0  0.85 0.6 0  0.9 0.6 0  0.95 0.6 0  1 0.6 0  0 0.65 0  0.05 0.65 0  0.1 0.65 0  0.15 0.65 0  0.2 0.65 0  0.25 0.65 0  0.3 0.65 0  0.35 0.65 0  0.4 0.65 0  0.45 0.65 0  0.5 0.65 0  0.55 0.65 0  0.6 0.65 0  0.65 0.65 0  0.7 0.65 0  0.75 0.65 0  0.8 0.65 0  0.85 0.65 0  0.9 0.65 0  0.95 0.65 0  1 0.65 0  0 0.7 0  0.05 0.7 0  0.1 0.7 0  0.15 0.7 0  0.2 0.7 0  0.25 0.7 0  0.3 0.7 0  0.35 0.7 0  0.4 0.7 0  0.45 0.7 0  0.5 0.7 0  0.55 0.7 0  0.6 0.7 0  0.65 0.7 0  0.7 0.7 0  0.75 0.7 0  0.8 0.7 0  0.85 0.7 0  0.9 0.7 0  0.95 0.7 0  1 0.7 0  0 0.75 0  0.05 0.75 0  0.1 0.75 0  0.15 0.75 0  0.2 0.75 0  0.25 0.75 0  0.3 0.75 0  0.35 0.75 0  0.4 0.75 0  0.45 0.75 0  0.5 0.75 0  0.55 0.75 0  0.6 0.75 0  0.65 0.75 0  0.7 0.75 0  0.75 0.75 0  0.8 0.75 0  0.85 0.75 0  0.9 0.75 0  0.95 0.75 0  1 0.75 0  0 0.8 0  0.05 0.8 0  0.1 0.8 0  0.15 0.8 0  0.2 0.8 0  0.25 0.8 0  0.3 0.8 0  0.35 0.8 0  0.4 0.8 0  0.45 0.8 0  0.5 0.8 0  0.55 0.8 0  0.6 0.8 0  0.65 0.8 0  0.7 0.8 0  0.75 0.8 0  0.8 0.8 0  0.85 0.8 0  0.9 0.8 0  0.95 0.8 0  1 0.8 0  0 0.85 0  0.05 0.85 0  0.1 0.85 0  0.15 0.85 0  0.2 0.85 0  0.25 0.85 0  0.3 0.85 0  0.35 0.85 0  0.4 0.85 0  0.45 0.85 0  0.5 0.85 0  0.55 0.85 0  0.6 0.85 0  0.65 0.85 0  0.7 0.85 0  0.75 0.85 0  0.8 0.85 0  0.85 0.85 0  0.9 0.85 0  0.95 0.85 0  1 0.85 0  0 0.9 0  0.05 0.9 0  0.1 0.9 0  0.15 0.9 0  0.2 0.9 0  0.25 0.9 0  0.3 0.9 0  0.35 0.9 0  0.4 0.9 0  0.45 0.9 0  0.5 0.9 0  0.55 0.9 0  0.6 0.9 0  0.65 0.9 0  0.7 0.9 0  0.75 0.9 0  0.8 0.9 0  0.85 0.9 0  0.9 0.9 0  0.95 0.9 0  1 0.9 0  0 0.95 0  0.05 0.95 0  0.1 0.95 0  0.15 0.95 0  0.2 0.95 0  0.25 0.95 0  0.3 0.95 0  0.35 0.95 0  0.4 0.95 0  0.45 0.95 0  0.5 0.95 0  0.55 0.95 0  0.6 0.95 0  0.65 0.95 0  0.7 0.95 0  0.75 0.95 0  0.8 0.95 0  0.85 0.95 0  0.9 0.95 0  0.95 0.95 0  1 0.95 0  0 1 0  0.05 1 0  0.1 1 0  0.15 1 0  0.2 1 0  0.25 1 0  0.3 1 0  0.35 1 0  0.4 1 0  0.45 1 0  0.5 1 0  0.55 1 0  0.6 1 0  0.65 1 0  0.7 1 0  0.75 1 0  0.8 1 0  0.85 1 0  0.9 1 0  0.95 1 0  1 1 0  </DataArray>
</Points>
<Cells>
[...]
<PointData  Vectors="f_137"> 
<DataArray  type="Float64"  Name="f_137"  NumberOfComponents="3" format="ascii">0.0000000000000000e+00 0.0000000000000000e+00 0.0000000000000000e+00  0.0000000000000000e+00 0.0000000000000000e+00 0.0000000000000000e+00  0.0000000000000000e+00 0.0000000000000000e+00 0.0000000000000000e+00  0.0000000000000000e+00 0.0000000000000000e+00 0.0000000000000000e+00  0.0000000000000000e+00 0.0000000000000000e+00 0.0000000000000000e+00  0.0000000000000000e+00 0.0000000000000000e+00 0.0000000000000000e+00  0.0000000000000000e+00 0.0000000000000000e+00 0.0000000000000000e+00  0.0000000000000000e+00 0.0000000000000000e+00 0.0000000000000000e+00  0.0000000000000000e+00 0.0000000000000000e+00 0.0000000000000000e+00  0.0000000000000000e+00 0.0000000000000000e+00 0.0000000000000000e+00  0.0000000000000000e+00 0.0000000000000000e+00 0.0000000000000000e+00  0.0000000000000000e+00 0.0000000000000000e+00 0.0000000000000000e+00  0.0000000000000000e+00 0.0000000000000000e+00 0.0000000000000000e+00  0.0000000000000000e+00 0.0000000000000000e+00 0.0000000000000000e+00  0.0000000000000000e+00 0.0000000000000000e+00 0.0000000000000000e+00  0.0000000000000000e+00 0.0000000000000000e+00 0.0000000000000000e+00  0.0000000000000000e+00 0.0000000000000000e+00 0.0000000000000000e+00  0.0000000000000000e+00 0.0000000000000000e+00 0.0000000000000000e+00  0.0000000000000000e+00 0.0000000000000000e+00 0.0000000000000000e+00  0.0000000000000000e+00 0.0000000000000000e+00 0.0000000000000000e+00  0.0000000000000000e+00 0.0000000000000000e+00 0.0000000000000000e+00  0.0000000000000000e+00 0.0000000000000000e+00 0.0000000000000000e+00  -5.3494155284038918e-04 5.2574585457567486e-04 0.0000000000000000e+00  -1.1200627704751811e-03 5.0778217946574188e-04 0.0000000000000000e+00  -1.6797495653755315e-03 4.7207207400376571e-04 0.0000000000000000e+00  -2.1952028065844163e-03 4.2569922229079464e-04 0.0000000000000000e+00  -2.6534170090871689e-03 3.6874509458684706e-04 0.0000000000000000e+00  -3.0431255742710880e-03 3.0281404186321422e-04 0.0000000000000000e+00  -3.3549588805868499e-03 2.2970033814547215e-04 0.0000000000000000e+00  -3.5816136186002101e-03 1.5124697513615735e-04 0.0000000000000000e+00  -3.7178814628226670e-03 6.9306821542007766e-05 0.0000000000000000e+00  -3.7606420855257113e-03 -1.4273301912737188e-05 0.0000000000000000e+00  -3.7088522739422030e-03 -9.7647402649753975e-05 0.0000000000000000e+00  -3.5635491359546833e-03 -1.7895437765190055e-04 0.0000000000000000e+00  -3.3278735571079052e-03 -2.5630559273761400e-04 0.0000000000000000e+00  -3.0071043864220224e-03 -3.2779437334145553e-04 0.0000000000000000e+00  -2.6086792594254564e-03 -3.9156890637912433e-04 0.0000000000000000e+00  -2.1421722031165066e-03 -4.4606915363733609e-04 0.0000000000000000e+00  -1.6192683655265401e-03 -4.9018440524056046e-04 0.0000000000000000e+00  -1.0539838922806412e-03 -5.1757410402406012e-04 0.0000000000000000e+00  -4.6322203347816735e-04 -4.6172124201887229e-04 0.0000000000000000e+00  0.0000000000000000e+00 0.0000000000000000e+00 0.0000000000000000e+00  0.0000000000000000e+00 0.0000000000000000e+00 0.0000000000000000e+00  -5.5925512584902135e-04 1.1315576960963813e-03 0.0000000000000000e+00  -1.2102363025342652e-03 1.1360962997694092e-03 0.0000000000000000e+00  -1.8332606252458394e-03 1.0593268011007200e-03 0.0000000000000000e+00  -2.4084926190522838e-03 9.5837543892882961e-04 0.0000000000000000e+00  -2.9205892597990628e-03 8.3392284309946076e-04 0.0000000000000000e+00  -3.3569949939855296e-03 6.8923922997844364e-04 0.0000000000000000e+00  -3.7073829558783855e-03 5.2828092032843185e-04 0.0000000000000000e+00  -3.9637172084480586e-03 3.5513391178476655e-04 0.0000000000000000e+00  -4.1202557104843161e-03 1.7388785038375474e-04 0.0000000000000000e+00  -4.1735071539461960e-03 -1.1401122161372879e-05 0.0000000000000000e+00  -4.1221923716950127e-03 -1.9669201326723125e-04 0.0000000000000000e+00  -3.9672406161500992e-03 -3.7791192858929008e-04 0.0000000000000000e+00  -3.7118304102185867e-03 -5.5091324805448222e-04 0.0000000000000000e+00  -3.3614633132112606e-03 -7.1147336235659168e-04 0.0000000000000000e+00  -2.9240381580129759e-03 -8.5540561967091414e-04 0.0000000000000000e+00  -2.4098785332325682e-03 -9.7894320371106703e-04 0.0000000000000000e+00  -1.8317001996510502e-03 -1.0792612200100306e-03 0.0000000000000000e+00  -1.2048032448003913e-03 -1.1473049349787858e-03 0.0000000000000000e+00  -5.5002731616897763e-04 -1.0685614973316496e-03 0.0000000000000000e+00  0.0000000000000000e+00 0.0000000000000000e+00 0.0000000000000000e+00  0.0000000000000000e+00 0.0000000000000000e+00 0.0000000000000000e+00  -5.9420933179244004e-04 1.7713694506764515e-03 0.0000000000000000e+00  -1.2819123913357703e-03 1.7974162926931549e-03 0.0000000000000000e+00  -1.9417093749047197e-03 1.6784841470923540e-03 0.0000000000000000e+00  -2.5499175468489555e-03 1.5187162629340762e-03 0.0000000000000000e+00  -3.0906285107568372e-03 1.3222539341206938e-03 0.0000000000000000e+00  -3.5507334139091092e-03 1.0940339353788116e-03 0.0000000000000000e+00  -3.9196846984515732e-03 8.4030557456832528e-04 0.0000000000000000e+00  -4.1894069367514955e-03 5.6752045345580303e-04 0.0000000000000000e+00  -4.3542002065976781e-03 2.8205730494793333e-04 0.0000000000000000e+00  -4.4106126529200240e-03 -9.8233522048870786e-06 0.0000000000000000e+00  -4.3573440332809127e-03 -3.0192029932332395e-04 0.0000000000000000e+00  -4.1952240210621217e-03 -5.8797982702222975e-04 0.0000000000000000e+00  -3.9272802069446385e-03 -8.6158865631424833e-04 0.0000000000000000e+00  -3.5588805384392072e-03 -1.1161367996440227e-03 0.0000000000000000e+00  -3.0979048340136518e-03 -1.3449534287794623e-03 0.0000000000000000e+00  -2.5548765167633389e-03 -1.5418542422581782e-03 0.0000000000000000e+00  -1.9430260136547302e-03 -1.7020529517641479e-03 0.0000000000000000e+00  -1.2785978516609068e-03 -1.8129742713443660e-03 0.0000000000000000e+00  -5.8404702249332586e-04 -1.7073434655573002e-03 0.0000000000000000e+00  0.0000000000000000e+00 0.0000000000000000e+00 0.0000000000000000e+00  0.0000000000000000e+00 0.0000000000000000e+00 0.0000000000000000e+00  -6.4704884072943052e-04 2.4584970967186513e-03 0.0000000000000000e+00  -1.3917003261482356e-03 2.5069081564805967e-03 0.0000000000000000e+00  -2.1047996158745420e-03 2.3413162554012136e-03 0.0000000000000000e+00  -2.7608410214055470e-03 2.1174884401401407e-03 0.0000000000000000e+00  -3.3425057075485245e-03 1.8428312707953597e-03 0.0000000000000000e+00  -3.8361174109946268e-03 1.5245604071037768e-03 0.0000000000000000e+00  -4.2309392089374060e-03 1.1714890596181558e-03 0.0000000000000000e+00  -4.5189898588262568e-03 7.9258999971097460e-04 0.0000000000000000e+00  -4.6947747582431693e-03 3.9656878521128415e-04 0.0000000000000000e+00  -4.7550068372263238e-03 -8.1741445642467039e-06 0.0000000000000000e+00  -4.6984086433618137e-03 -4.1339717968264260e-04 0.0000000000000000e+00  -4.5256570095563295e-03 -8.1078211614821660e-04 0.0000000000000000e+00  -4.2394930456263495e-03 -1.1917028852252256e-03 0.0000000000000000e+00  -3.8449777156769572e-03 -1.5471015927612144e-03 0.0000000000000000e+00  -3.3498293998447432e-03 -1.8676230516736102e-03 0.0000000000000000e+00  -2.7647427374071034e-03 -2.1443376876061409e-03 0.0000000000000000e+00  -2.1036222064129669e-03 -2.3700797545748342e-03 0.0000000000000000e+00  -1.3839953900669265e-03 -2.5280272806763823e-03 0.0000000000000000e+00  -6.3037950822774453e-04 -2.3934775235888799e-03 0.0000000000000000e+00  0.0000000000000000e+00 0.0000000000000000e+00 0.0000000000000000e+00  0.0000000000000000e+00 0.0000000000000000e+00 0.0000000000000000e+00  -7.1845998904956204e-04 3.2121886103917497e-03 0.0000000000000000e+00  -1.5411913065560058e-03 3.2831545804444398e-03 0.0000000000000000e+00  -2.3273614561108141e-03 3.0647628011155753e-03 0.0000000000000000e+00  -3.0482478936358463e-03 2.7689877645239798e-03 0.0000000000000000e+00  -3.6849898568369240e-03 2.4073630408179480e-03 0.0000000000000000e+00  -4.2232137033625964e-03 1.9899053148025795e-03 0.0000000000000000e+00  -4.6521660143649720e-03 1.5284532342207538e-03 0.0000000000000000e+00  -4.9642429987932484e-03 1.0347282782877710e-03 0.0000000000000000e+00  -5.1544456606796695e-03 5.1977165065736157e-04 0.0000000000000000e+00  -5.2198573924261485e-03 -6.0358618195083915e-06 0.0000000000000000e+00  -5.1592817876927001e-03 -5.3266345746987248e-04 0.0000000000000000e+00  -4.9731303093406140e-03 -1.0499772122294117e-03 0.0000000000000000e+00  -4.6635938006268033e-03 -1.5472877801119248e-03 0.0000000000000000e+00  -4.2350740982991346e-03 -2.0130550971021182e-03 0.0000000000000000e+00  -3.6947893295502174e-03 -2.4349686189222264e-03 0.0000000000000000e+00  -3.0534060693949545e-03 -2.8008504582384634e-03 0.0000000000000000e+00  -2.3255668748283706e-03 -3.1004987566147562e-03 0.0000000000000000e+00  -1.5305117873300896e-03 -3.3118237637259035e-03 0.0000000000000000e+00  -6.9574151687256498e-04 -3.1458373428146446e-03 0.0000000000000000e+00  0.0000000000000000e+00 0.0000000000000000e+00 0.0000000000000000e+00  0.0000000000000000e+00 0.0000000000000000e+00 0.0000000000000000e+00  -8.1142240499278856e-04 4.0542620903441491e-03 0.0000000000000000e+00  -1.7360140590642519e-03 4.1477548598551628e-03 0.0000000000000000e+00  -2.6167860073802347e-03 3.8676840717130085e-03 0.0000000000000000e+00  -3.4207027073610043e-03 3.4888872545549752e-03 0.0000000000000000e+00  -4.1269429159837417e-03 3.0281447260936661e-03 0.0000000000000000e+00  -4.7205728407567560e-03 2.4992005853780182e-03 0.0000000000000000e+00  -5.1912541624167304e-03 1.9175591195521114e-03 0.0000000000000000e+00  -5.5323384790011490e-03 1.2979742939432509e-03 0.0000000000000000e+00  -5.7398688754382683e-03 6.5375717745836000e-04 0.0000000000000000e+00  -5.8116754109518816e-03 -3.0643598964141005e-06 0.0000000000000000e+00  -5.7467602598389881e-03 -6.6114768882118494e-04 0.0000000000000000e+00  -5.5450938849261003e-03 -1.3090218323265903e-03 0.0000000000000000e+00  -5.2078711564768109e-03 -1.9342660981907834e-03 0.0000000000000000e+00  -4.7382037770865764e-03 -2.5229069841678311e-03 0.0000000000000000e+00  -4.1421406707252920e-03 -3.0593461025139783e-03 0.0000000000000000e+00  -3.4298113477852590e-03 -3.5274277101978754e-03 0.0000000000000000e+00  -2.6164626856485353e-03 -3.9128908644150496e-03 0.0000000000000000e+00  -1.7234742734938135e-03 -4.1868131557769948e-03 0.0000000000000000e+00  -7.8246494871748453e-04 -3.9866303997483088e-03 0.0000000000000000e+00  0.0000000000000000e+00 0.0000000000000000e+00 0.0000000000000000e+00  0.0000000000000000e+00 0.0000000000000000e+00 0.0000000000000000e+00  -9.3035055903352610e-04 5.0103038192653463e-03 0.0000000000000000e+00  -1.9848560632098541e-03 5.1256362222609009e-03 0.0000000000000000e+00  -2.9848864977421916e-03 4.7712613722924605e-03 0.0000000000000000e+00  -3.8917333944023893e-03 4.2939730136795353e-03 0.0000000000000000e+00  -4.6823108994160827e-03 3.7176126253977660e-03 0.0000000000000000e+00  -5.3415636546185804e-03 3.0610431183715329e-03 0.0000000000000000e+00  -5.8604630528916717e-03 2.3443454121472689e-03 0.0000000000000000e+00  -6.2343646067985134e-03 1.5856207105854412e-03 0.0000000000000000e+00  -6.4612929242177913e-03 8.0021938071790579e-04 0.0000000000000000e+00  -6.5404601654852615e-03 1.1836532514657577e-06 0.0000000000000000e+00  -6.4712790080375749e-03 -7.9968070260131576e-04 0.0000000000000000e+00  -6.2530190190997871e-03 -1.5904246789792888e-03 0.0000000000000000e+00  -5.8851693695854117e-03 -2.3575510736386592e-03 0.0000000000000000e+00  -5.3684959950906965e-03 -3.0848914148636241e-03 0.0000000000000000e+00  -4.7066802021683762e-03 -3.7532044695188760e-03 0.0000000000000000e+00  -3.9082778662844686e-03 -4.3413357774429954e-03 0.0000000000000000e+00  -2.9886329069972006e-03 -4.8293882410282820e-03 0.0000000000000000e+00  -1.9716245489997072e-03 -5.1791998936216738e-03 0.0000000000000000e+00  -8.9447007567670640e-04 -4.9422296508893054e-03 0.0000000000000000e+00  0.0000000000000000e+00 0.0000000000000000e+00 0.0000000000000000e+00  0.0000000000000000e+00 0.0000000000000000e+00 0.0000000000000000e+00  -1.0816871659497032e-03 6.1114387769993913e-03 0.0000000000000000e+00  -2.3002857160495300e-03 6.2463573733228077e-03 0.0000000000000000e+00  -3.4485384529634074e-03 5.7995529877598118e-03 0.0000000000000000e+00  -4.4802686266469287e-03 5.2020882129569191e-03 0.0000000000000000e+00  -5.3700267263259681e-03 4.4877564443186147e-03 0.0000000000000000e+00  -6.1036680501963736e-03 3.6826486482714900e-03 0.0000000000000000e+00  -6.6751320094750738e-03 2.8126651012450226e-03 0.0000000000000000e+00  -7.0835666887643523e-03 1.8995310131265234e-03 0.0000000000000000e+00  -7.3305063482560053e-03 9.6008925417839265e-04 0.0000000000000000e+00  -7.4175565873449596e-03 7.2731109505985084e-06 0.0000000000000000e+00  -7.3448940697696738e-03 -9.4807546905410463e-04 0.0000000000000000e+00  -7.1107227023868673e-03 -1.8949847387557312e-03 0.0000000000000000e+00  -6.7117515321038828e-03 -2.8200754268671979e-03 0.0000000000000000e+00  -6.1447189217367680e-03 -3.7056028868112981e-03 0.0000000000000000e+00  -5.4089010407547908e-03 -4.5284126860015940e-03 0.0000000000000000e+00  -4.5093360106379637e-03 -5.2609863190457686e-03 0.0000000000000000e+00  -3.4602400879794469e-03 -5.8753870608402219e-03 0.0000000000000000e+00  -2.2881373483608436e-03 -6.3204555102370332e-03 0.0000000000000000e+00  -1.0378384578933213e-03 -6.0449695110369531e-03 0.0000000000000000e+00  0.0000000000000000e+00 0.0000000000000000e+00 0.0000000000000000e+00  0.0000000000000000e+00 0.0000000000000000e+00 0.0000000000000000e+00  -1.2750391120491392e-03 7.3968776430416222e-03 0.0000000000000000e+00  -2.7007440689540071e-03 7.5459633798778550e-03 0.0000000000000000e+00  -4.0319238858465998e-03 6.9801895512023949e-03 0.0000000000000000e+00  -5.2125676248040743e-03 6.2317396264117845e-03 0.0000000000000000e+00  -6.2152457940934519e-03 5.3489744392104157e-03 0.0000000000000000e+00  -7.0288558008955709e-03 4.3683750570897937e-03 0.0000000000000000e+00  -7.6532406749272239e-03 3.3232636444778326e-03 0.0000000000000000e+00  -8.0942676881957300e-03 2.2390534269198870e-03 0.0000000000000000e+00  -8.3593485499980930e-03 1.1329540133842347e-03 0.0000000000000000e+00  -8.4540034678372653e-03 1.5899178813474025e-05 0.0000000000000000e+00  -8.3797249179528802e-03 -1.1045108565315728e-03 0.0000000000000000e+00  -8.1331768257494816e-03 -2.2206194019195741e-03 0.0000000000000000e+00  -7.7067552359241223e-03 -3.3212168982876874e-03 0.0000000000000000e+00  -7.0906210190438690e-03 -4.3883137258735102e-03 0.0000000000000000e+00  -6.2763179555078499e-03 -5.3949170859458398e-03 0.0000000000000000e+00  -5.2618689158949678e-03 -6.3054656939184892e-03 0.0000000000000000e+00  -4.0577437103316008e-03 -7.0803855932938548e-03 0.0000000000000000e+00  -2.6926582699819883e-03 -7.6495438348558797e-03 0.0000000000000000e+00  -1.2217384364199147e-03 -7.3360162956401598e-03 0.0000000000000000e+00  0.0000000000000000e+00 0.0000000000000000e+00 0.0000000000000000e+00  0.0000000000000000e+00 0.0000000000000000e+00 0.0000000000000000e+00  -1.5251509043433334e-03 8.9179085174654945e-03 0.0000000000000000e+00  -3.2139684692855850e-03 9.0696553246705919e-03 0.0000000000000000e+00  -4.7703824047941627e-03 8.3450360136301093e-03 0.0000000000000000e+00  -6.1254937308747627e-03 7.4009946472349264e-03 0.0000000000000000e+00  -7.2514306831285109e-03 6.3078801964879328e-03 0.0000000000000000e+00  -8.1443205179074548e-03 5.1171900961386272e-03 0.0000000000000000e+00  -8.8149691497836774e-03 3.8715000046472170e-03 0.0000000000000000e+00  -9.2805760661351152e-03 2.5993541653905813e-03 0.0000000000000000e+00  -9.5579065116042517e-03 1.3161761680946054e-03 0.0000000000000000e+00  -9.6585290905648099e-03 2.7865262506153511e-05 0.0000000000000000e+00  -9.5860503279230087e-03 -1.2646640996918303e-03 0.0000000000000000e+00  -9.3350486925943416e-03 -2.5606205695440877e-03 0.0000000000000000e+00  -8.8915977804079928e-03 -3.8543070808121607e-03 0.0000000000000000e+00  -8.2356467399292040e-03 -5.1300881824612350e-03 0.0000000000000000e+00  -7.3458026430779436e-03 -6.3581352415738321e-03 0.0000000000000000e+00  -6.2069518916496660e-03 -7.4931663373702913e-03 0.0000000000000000e+00  -4.8204575850138648e-03 -8.4787893528597176e-03 0.0000000000000000e+00  -3.2152101039818058e-03 -9.2162304146030279e-03 0.0000000000000000e+00  -1.4603109928073425e-03 -8.8699689627204023e-03 0.0000000000000000e+00  0.0000000000000000e+00 0.0000000000000000e+00 0.0000000000000000e+00  0.0000000000000000e+00 0.0000000000000000e+00 0.0000000000000000e+00  -1.8554564676182394e-03 1.0744398211287646e-02 0.0000000000000000e+00  -3.8829746831362359e-03 1.0875720217584251e-02 0.0000000000000000e+00  -5.7168326842557821e-03 9.9305236800571808e-03 0.0000000000000000e+00  -7.2716065635830066e-03 8.7249282890333561e-03 0.0000000000000000e+00  -8.5232263450466268e-03 7.3632626524446042e-03 0.0000000000000000e+00  -9.4831342913579662e-03 5.9184784729159100e-03 0.0000000000000000e+00  -1.0181640804542742e-02 4.4438617489197495e-03 0.0000000000000000e+00  -1.0654238426688891e-02 2.9690138405034515e-03 0.0000000000000000e+00  -1.0931781027037081e-02 1.5036510510608439e-03 0.0000000000000000e+00  -1.1034582185313656e-02 4.3999900217401637e-05 0.0000000000000000e+00  -1.0969397383234542e-02 -1.4205898713743259e-03 0.0000000000000000e+00  -1.0728230303463511e-02 -2.9012319540493523e-03 0.0000000000000000e+00  -1.0288551697992990e-02 -4.4028845957867959e-03 0.0000000000000000e+00  -9.6153905052230541e-03 -5.9170221212333923e-03 0.0000000000000000e+00  -8.6667368249973946e-03 -7.4140904601411916e-03 0.0000000000000000e+00  -7.4039453205416769e-03 -8.8384986369158779e-03 0.0000000000000000e+00  -5.8084767601299945e-03 -1.0110257836438005e-02 0.0000000000000000e+00  -3.9033641938585675e-03 -1.1086141972950202e-02 0.0000000000000000e+00  -1.7761850295096016e-03 -1.0722517577300266e-02 0.0000000000000000e+00  0.0000000000000000e+00 0.0000000000000000e+00 0.0000000000000000e+00  0.0000000000000000e+00 0.0000000000000000e+00 0.0000000000000000e+00  -2.3046625489112757e-03 1.2975759501734128e-02 0.0000000000000000e+00  -4.7768588824686539e-03 1.3041331803367041e-02 0.0000000000000000e+00  -6.9526450401521337e-03 1.1776806201739333e-02 0.0000000000000000e+00  -8.7269304111945393e-03 1.0210068505748003e-02 0.0000000000000000e+00  -1.0090014282059395e-02 8.4987856017126173e-03 0.0000000000000000e+00  -1.1084180971260247e-02 6.7453295494074045e-03 0.0000000000000000e+00  -1.1773324699843234e-02 5.0129435162367926e-03 0.0000000000000000e+00  -1.2221063625629462e-02 3.3268497570924944e-03 0.0000000000000000e+00  -1.2478020448427442e-02 1.6842289479945759e-03 0.0000000000000000e+00  -1.2576060029742625e-02 6.4971235492222509e-05 0.0000000000000000e+00  -1.2526187477019583e-02 -1.5594625129505572e-03 0.0000000000000000e+00  -1.2317688477619394e-02 -3.2186167421451731e-03 0.0000000000000000e+00  -1.1917538286556022e-02 -4.9354290963901891e-03 0.0000000000000000e+00  -1.1270811160292745e-02 -6.7167097895619310e-03 0.0000000000000000e+00  -1.0304536201934000e-02 -8.5405984403990713e-03 0.0000000000000000e+00  -8.9397966426718999e-03 -1.0344467281112355e-02 0.0000000000000000e+00  -7.1166387223428693e-03 -1.2018164144767994e-02 0.0000000000000000e+00  -4.8358578434425231e-03 -1.3348656052469538e-02 0.0000000000000000e+00  -2.2071207609579186e-03 -1.3003913894698755e-02 0.0000000000000000e+00  0.0000000000000000e+00 0.0000000000000000e+00 0.0000000000000000e+00  0.0000000000000000e+00 0.0000000000000000e+00 0.0000000000000000e+00  -2.9396157082102370e-03 1.5760098638209041e-02 0.0000000000000000e+00  -6.0111277095147653e-03 1.5670952569790959e-02 0.0000000000000000e+00  -8.6063240162628646e-03 1.3923417728185042e-02 0.0000000000000000e+00  -1.0602386547866891e-02 1.1842513633553127e-02 0.0000000000000000e+00  -1.2029266480057680e-02 9.6699812260842462e-03 0.0000000000000000e+00  -1.2989836763