<?xml version="1.0"?>
<VTKFile type="UnstructuredGrid"  version="0.1"  >
<UnstructuredGrid>
<Piece  NumberOfPoints="441" NumberOfCells="800">
<Points>
<DataArray  type="Float64"  NumberOfComponents="3"  format="ascii">0 0 0  0.05 0 0  0.1 0 0  0.15 0 0  0.2 0 0  0.25 0 0  0.3 0 0  0.35 0 0  0.4 0 0  0.45 0 0  0.5 0 0  0.55 0 0  0.6 0 0  0.65 0 0  0.7 0 0  0.75 0 0  0.8 0 0  0.85 0 0  0.9 0 0  0.95 0 0  1 0 0  0 0.05 0  0.05 0.05 0  0.1 0.05 0  0.15 0.05 0  0.2 0.05 0  0.25 0.05 0  0.3 0.05 0  0.35 0.05 0  0.4 0.05 0  0.45 0.05 0  0.5 0.05 0  0.55 0.05 0  0.6 0.05 0  0.65 0.05 0  0.7 0.05 0  0.75 0.05 0  0.8 0.05 0  0.85 0.05 0  0.9 0.05 0  0.95 0.05 0  1 0.05 0  0 0.1 0  0.05 0.1 0  0.1 0.1 0  0.15 0.1 0  0.2 0.1 0  0.25 0.1 0  0.3 0.1 0  0.35 0.1 0  0.4 0.1 0  0.45 0.1 0  0.5 0.1 0  0.55 0.1 0  0.6 0.1 0  0.65 0.1 0  0.7 0.1 0  0.75 0.1 0  0.8 0.1 0  0.85 0.1 0  0.9 0.1 0  0.95 0.1 0  1 0.1 0  0 0.15 0  0.05 0.15 0  0.1 0.15 0  0.15 0.15 0  0.2 0.15 0  0.25 0.15 0  0.3 0.15 0  0.35 0.15 0  0.4 0.15 0  0.45 0.15 0  0.5 0.15 0  0.55 0.15 0  0.6 0.15 0  0.65 0.15 0  0.7 0.15 0  0.75 0.15 0  0.8 0.15 0  0.85 0.15 0  0.9 0.15 0  0.95 0.15 0  1 0.15 0  0 0.2 0  0.05 0.2 0  0.1 0.2 0  0.15 0.2 0  0.2 0.2 0  0.25 0.2 0  0.3 0.2 0  0.35 0.2 0  0.4 0.2 0  0.45 0.2 0  0.5 0.2 0  0.55 0.2 0  0.6 0.2 0  0.65 0.2 0  0.7 0.2 0  0.75 0.2 0  0.8 0.2 0  0.85 0.2 0  0.9 0.2 0  0.95 0.2 0  1 0.2 0  0 0.25 0  0.05 0.25 0  0.1 0.25 0  0.15 0.25 0  0.2 0.25 0  0.25 0.25 0  0.3 0.25 0  0.35 0.25 0  0.4 0.25 0  0.45 0.25 0  0.5 0.25 0  0.55 0.25 0  0.6 0.25 0  0.65 0.25 0  0.7 0.25 0  0.75 0.25 0  0.8 0.25 0  0.85 0.25 0  0.9 0.25 0  0.95 0.25 0  1 0.25 0  0 0.3 0  0.05 0.3 0  0.1 0.3 0  0.15 0.3 0  0.2 0.3 0  0.25 0.3 0  0.3 0.3 0  0.35 0.3 0  0.4 0.3 0  0.45 0.3 0  0.5 0.3 0  0.55 0.3 0  0.6 0.3 0  0.65 0.3 0  0.7 0.3 0  0.75 0.3 0  0.8 0.3 0  0.85 0.3 0  0.9 0.3 0  0.95 0.3 0  1 0.3 0  0 0.35 0  0.05 0.35 0  0.1 0.35 0  0.15 0.35 0  0.2 0.35 0  0.25 0.35 0  0.3 0.35 0  0.35 0.35 0  0.4 0.35 0  0.45 0.35 0  0.5 0.35 0  0.55 0.35 0  0.6 0.35 0  0.65 0.35 0  0.7 0.35 0  0.75 0.35 0  0.8 0.35 0  0.85 0.35 0  0.9 0.35 0  0.95 0.35 0  1 0.35 0  0 0.4 0  0.05 0.4 0  0.1 0.4 0  0.15 0.4 0  0.2 0.4 0  0.25 0.4 0  0.3 0.4 0  0.35 0.4 0  0.4 0.4 0  0.45 0.4 0  0.5 0.4 0  0.55 0.4 0  0.6 0.4 0  0.65 0.4 0  0.7 0.4 0  0.75 0.4 0  0.8 0.4 0  0.85 0.4 0  0.9 0.4 0  0.95 0.4 0  1 0.4 0  0 0.45 0  0.05 0.45 0  0.1 0.45 0  0.15 0.45 0  0.2 0.45 0  0.25 0.45 0  0.3 0.45 0  0.35 0.45 0  0.4 0.45 0  0.45 0.45 0  0.5 0.45 0  0.55 0.45 0  0.6 0.45 0  0.65 0.45 0  0.7 0.45 0  0.75 0.45 0  0.8 0.45 0  0.85 0.45 0  0.9 0.45 0  0.95 0.45 0  1 0.45 0  0 0.5 0  0.05 0.5 0  0.1 0.5 0  0.15 0.5 0  0.2 0.5 0  0.25 0.5 0  0.3 0.5 0  0.35 0.5 0  0.4 0.5 0  0.45 0.5 0  0.5 0.5 0  0.55 0.5 0  0.6 0.5 0  0.65 0.5 0  0.7 0.5 0  0.75 0.5 0  0.8 0.5 0  0.85 0.5 0  0.9 0.5 0  0.95 0.5 0  1 0.5 0  0 0.55 0  0.05 0.55 0  0.1 0.55 0  0.15 0.55 0  0.2 0.55 0  0.25 0.55 0  0.3 0.55 0  0.35 0.55 0  0.4 0.55 0  0.45 0.55 0  0.5 0.55 0  0.55 0.55 0  0.6 0.55 0  0.65 0.55 0  0.7 0.55 0  0.75 0.55 0  0.8 0.55 0  0.85 0.55 0  0.9 0.55 0  0.95 0.55 0  1 0.55 0  0 0.6 0  0.05 0.6 0  0.1 0.6 0  0.15 0.6 0  0.2 0.6 0  0.25 0.6 0  0.3 0.6 0  0.35 0.6 0  0.4 0.6 0  0.45 0.6 0  0.5 0.6 0  0.55 0.6 0  0.6 0.6 0  0.65 0.6 0  0.7 0.6 0  0.75 0.6 0  0.8 0.6 0  0.85 0.6 0  0.9 0.6 0  0.95 0.6 0  1 0.6 0  0 0.65 0  0.05 0.65 0  0.1 0.65 0  0.15 0.65 0  0.2 0.65 0  0.25 0.65 0  0.3 0.65 0  0.35 0.65 0  0.4 0.65 0  0.45 0.65 0  0.5 0.65 0  0.55 0.65 0  0.6 0.65 0  0.65 0.65 0  0.7 0.65 0  0.75 0.65 0  0.8 0.65 0  0.85 0.65 0  0.9 0.65 0  0.95 0.65 0  1 0.65 0  0 0.7 0  0.05 0.7 0  0.1 0.7 0  0.15 0.7 0  0.2 0.7 0  0.25 0.7 0  0.3 0.7 0  0.35 0.7 0  0.4 0.7 0  0.45 0.7 0  0.5 0.7 0  0.55 0.7 0  0.6 0.7 0  0.65 0.7 0  0.7 0.7 0  0.75 0.7 0  0.8 0.7 0  0.85 0.7 0  0.9 0.7 0  0.95 0.7 0  1 0.7 0  0 0.75 0  0.05 0.75 0  0.1 0.75 0  0.15 0.75 0  0.2 0.75 0  0.25 0.75 0  0.3 0.75 0  0.35 0.75 0  0.4 0.75 0  0.45 0.75 0  0.5 0.75 0  0.55 0.75 0  0.6 0.75 0  0.65 0.75 0  0.7 0.75 0  0.75 0.75 0  0.8 0.75 0  0.85 0.75 0  0.9 0.75 0  0.95 0.75 0  1 0.75 0  0 0.8 0  0.05 0.8 0  0.1 0.8 0  0.15 0.8 0  0.2 0.8 0  0.25 0.8 0  0.3 0.8 0  0.35 0.8 0  0.4 0.8 0  0.45 0.8 0  0.5 0.8 0  0.55 0.8 0  0.6 0.8 0  0.65 0.8 0  0.7 0.8 0  0.75 0.8 0  0.8 0.8 0  0.85 0.8 0  0.9 0.8 0  0.95 0.8 0  1 0.8 0  0 0.85 0  0.05 0.85 0  0.1 0.85 0  0.15 0.85 0  0.2 0.85 0  0.25 0.85 0  0.3 0.85 0  0.35 0.85 0  0.4 0.85 0  0.45 0.85 0  0.5 0.85 0  0.55 0.85 0  0.6 0.85 0  0.65 0.85 0  0.7 0.85 0  0.75 0.85 0  0.8 0.85 0  0.85 0.85 0  0.9 0.85 0  0.95 0.85 0  1 0.85 0  0 0.9 0  0.05 0.9 0  0.1 0.9 0  0.15 0.9 0  0.2 0.9 0  0.25 0.9 0  0.3 0.9 0  0.35 0.9 0  0.4 0.9 0  0.45 0.9 0  0.5 0.9 0  0.55 0.9 0  0.6 0.9 0  0.65 0.9 0  0.7 0.9 0  0.75 0.9 0  0.8 0.9 0  0.85 0.9 0  0.9 0.9 0  0.95 0.9 0  1 0.9 0  0 0.95 0  0.05 0.95 0  0.1 0.95 0  0.15 0.95 0  0.2 0.95 0  0.25 0.95 0  0.3 0.95 0  0.35 0.95 0  0.4 0.95 0  0.45 0.95 0  0.5 0.95 0  0.55 0.95 0  0.6 0.95 0  0.65 0.95 0  0.7 0.95 0  0.75 0.95 0  0.8 0.95 0  0.85 0.95 0  0.9 0.95 0  0.95 0.95 0  1 0.95 0  0 1 0  0.05 1 0  0.1 1 0  0.15 1 0  0.2 1 0  0.25 1 0  0.3 1 0  0.35 1 0  0.4 1 0  0.45 1 0  0.5 1 0  0.55 1 0  0.6 1 0  0.65 1 0  0.7 1 0  0.75 1 0  0.8 1 0  0.85 1 0  0.9 1 0  0.95 1 0  1 1 0  </DataArray>
</Points>
<Cells>
[...]
<PointData  Vectors="f_137"> 
<DataArray  type="Float64"  Name="f_137"  NumberOfComponents="3" format="ascii">0.0000000000000000e+00 0.0000000000000000e+00 0.0000000000000000e+00  0.0000000000000000e+00 0.0000000000000000e+00 0.0000000000000000e+00  0.0000000000000000e+00 0.0000000000000000e+00 0.0000000000000000e+00  0.0000000000000000e+00 0.0000000000000000e+00 0.0000000000000000e+00  0.0000000000000000e+00 0.0000000000000000e+00 0.0000000000000000e+00  0.0000000000000000e+00 0.0000000000000000e+00 0.0000000000000000e+00  0.0000000000000000e+00 0.0000000000000000e+00 0.0000000000000000e+00  0.0000000000000000e+00 0.0000000000000000e+00 0.0000000000000000e+00  0.0000000000000000e+00 0.0000000000000000e+00 0.0000000000000000e+00  0.0000000000000000e+00 0.0000000000000000e+00 0.0000000000000000e+00  0.0000000000000000e+00 0.0000000000000000e+00 0.0000000000000000e+00  0.0000000000000000e+00 0.0000000000000000e+00 0.0000000000000000e+00  0.0000000000000000e+00 0.0000000000000000e+00 0.0000000000000000e+00  0.0000000000000000e+00 0.0000000000000000e+00 0.0000000000000000e+00  0.0000000000000000e+00 0.0000000000000000e+00 0.0000000000000000e+00  0.0000000000000000e+00 0.0000000000000000e+00 0.0000000000000000e+00  0.0000000000000000e+00 0.0000000000000000e+00 0.0000000000000000e+00  0.0000000000000000e+00 0.0000000000000000e+00 0.0000000000000000e+00  0.0000000000000000e+00 0.0000000000000000e+00 0.0000000000000000e+00  0.0000000000000000e+00 0.0000000000000000e+00 0.0000000000000000e+00  0.0000000000000000e+00 0.0000000000000000e+00 0.0000000000000000e+00  0.0000000000000000e+00 0.0000000000000000e+00 0.0000000000000000e+00  -8.3481838570203723e-04 8.2686036172811503e-04 0.0000000000000000e+00  -2.2457698758558860e-03 9.0142486366861011e-04 0.0000000000000000e+00  -3.6406863767123594e-03 8.5322498687053915e-04 0.0000000000000000e+00  -4.9415434469314463e-03 7.8562377245382871e-04 0.0000000000000000e+00  -6.1181524164745224e-03 6.9815102366799686e-04 0.0000000000000000e+00  -7.1396805481611855e-03 5.9277518463131775e-04 0.0000000000000000e+00  -7.9798493686150957e-03 4.7163917356169853e-04 0.0000000000000000e+00  -8.6161259412310520e-03 3.3713970989671116e-04 0.0000000000000000e+00  -9.0301977579654580e-03 1.9194205246228336e-04 0.0000000000000000e+00  -9.2083326885828848e-03 3.9002356080948463e-05 0.0000000000000000e+00  -9.1417946407992244e-03 -1.1836204464834577e-04 0.0000000000000000e+00  -8.8273731175797024e-03 -2.7639476296121722e-04 0.0000000000000000e+00  -8.2680122172687012e-03 -4.3084927463499408e-04 0.0000000000000000e+00  -7.4734976001122420e-03 -5.7700934633285949e-04 0.0000000000000000e+00  -6.4609898409215766e-03 -7.0979683804401738e-04 0.0000000000000000e+00  -5.2554589123937059e-03 -8.2407860757386742e-04 0.0000000000000000e+00  -3.8892409290759962e-03 -9.1468784949775043e-04 0.0000000000000000e+00  -2.4075860753656171e-03 -9.6913704238421811e-04 0.0000000000000000e+00  -8.8407746089279456e-04 -8.8296086342273101e-04 0.0000000000000000e+00  0.0000000000000000e+00 0.0000000000000000e+00 0.0000000000000000e+00  0.0000000000000000e+00 0.0000000000000000e+00 0.0000000000000000e+00  -9.6223123437378321e-04 2.2716317930893282e-03 0.0000000000000000e+00  -2.5562392268713629e-03 2.4450167564571117e-03 0.0000000000000000e+00  -4.1231513546615530e-03 2.3238023231997086e-03 0.0000000000000000e+00  -5.5881621854739346e-03 2.1374572027705037e-03 0.0000000000000000e+00  -6.9112431463050489e-03 1.8969825062223424e-03 0.0000000000000000e+00  -8.0588580072423026e-03 1.6081788866474491e-03 0.0000000000000000e+00  -9.0018388662423763e-03 1.2772358869137330e-03 0.0000000000000000e+00  -9.7154296413597286e-03 9.1099901910671958e-04 0.0000000000000000e+00  -1.0179662574039272e-02 5.1687129458835828e-04 0.0000000000000000e+00  -1.0379581595439849e-02 1.0289337911880640e-04 0.0000000000000000e+00  -1.0305604676870462e-02 -3.2206965141655326e-04 0.0000000000000000e+00  -9.9540509762595930e-03 -7.4810291663368145e-04 0.0000000000000000e+00  -9.3278458390687914e-03 -1.1640712420792109e-03 0.0000000000000000e+00  -8.4373612084907151e-03 -1.5576159220397146e-03 0.0000000000000000e+00  -7.3011029642819436e-03 -1.9154211727488676e-03 0.0000000000000000e+00  -5.9468096574144987e-03 -2.2237692129859965e-03 0.0000000000000000e+00  -4.4100282425910712e-03 -2.4690162910946337e-03 0.0000000000000000e+00  -2.7408311308733421e-03 -2.6219913715623761e-03 0.0000000000000000e+00  -1.0292787483978376e-03 -2.4455362486496780e-03 0.0000000000000000e+00  0.0000000000000000e+00 0.0000000000000000e+00 0.0000000000000000e+00  0.0000000000000000e+00 0.0000000000000000e+00 0.0000000000000000e+00  -1.0093016818834373e-03 3.8177151073878059e-03 0.0000000000000000e+00  -2.6938026576761470e-03 4.0894493252011223e-03 0.0000000000000000e+00  -4.3480408570374957e-03 3.8871764319961116e-03 0.0000000000000000e+00  -5.8949452091552699e-03 3.5738775671160399e-03 0.0000000000000000e+00  -7.2921419148168024e-03 3.1702504595717100e-03 0.0000000000000000e+00  -8.5052588434767346e-03 2.6862707570682156e-03 0.0000000000000000e+00  -9.5040192182663588e-03 2.1327196524537893e-03 0.0000000000000000e+00  -1.0262934678444443e-02 1.5211380636260413e-03 0.0000000000000000e+00  -1.0761277753176243e-02 8.6376517088313648e-04 0.0000000000000000e+00  -1.0983155838392428e-02 1.7370396408558281e-04 0.0000000000000000e+00  -1.0917755903548067e-02 -5.3471321843057661e-04 0.0000000000000000e+00  -1.0559861903346754e-02 -1.2454550233472086e-03 0.0000000000000000e+00  -9.9106981253498736e-03 -1.9403856537502082e-03 0.0000000000000000e+00  -8.9790722196610162e-03 -2.5991308038347495e-03 0.0000000000000000e+00  -7.7825096218503793e-03 -3.1994080994519236e-03 0.0000000000000000e+00  -6.3488339970048753e-03 -3.7179243942700919e-03 0.0000000000000000e+00  -4.7148510086966484e-03 -4.1310156923789242e-03 0.0000000000000000e+00  -2.9344807316779181e-03 -4.3936725933764222e-03 0.0000000000000000e+00  -1.1027231767384447e-03 -4.1144248186954918e-03 0.0000000000000000e+00  0.0000000000000000e+00 0.0000000000000000e+00 0.0000000000000000e+00  0.0000000000000000e+00 0.0000000000000000e+00 0.0000000000000000e+00  -1.0843784408249976e-03 5.4594669002017383e-03 0.0000000000000000e+00  -2.8940681878955668e-03 5.8408718644977148e-03 0.0000000000000000e+00  -4.6713083212332109e-03 5.5525333077106305e-03 0.0000000000000000e+00  -6.3325494580246744e-03 5.1042196244352337e-03 0.0000000000000000e+00  -7.8329406224243673e-03 4.5275031528901593e-03 0.0000000000000000e+00  -9.1366516738092159e-03 3.8373078838095207e-03 0.0000000000000000e+00  -1.0212381137769630e-02 3.0492756574080210e-03 0.0000000000000000e+00  -1.1033967651578734e-02 2.1797387635069123e-03 0.0000000000000000e+00  -1.1579946545211241e-02 1.2456230818817262e-03 0.0000000000000000e+00  -1.1833324512148330e-02 2.6472011894594790e-04 0.0000000000000000e+00  -1.1781580104381692e-02 -7.4365752291720585e-04 0.0000000000000000e+00  -1.1417116628221589e-02 -1.7577915002207312e-03 0.0000000000000000e+00  -1.0738286693000873e-02 -2.7527034525723377e-03 0.0000000000000000e+00  -9.7510106241499323e-03 -3.6996717616222838e-03 0.0000000000000000e+00  -8.4706104153407270e-03 -4.5664744987331503e-03 0.0000000000000000e+00  -6.9243764068450866e-03 -5.3185839701885111e-03 0.0000000000000000e+00  -5.1506712367461053e-03 -5.9204635131912759e-03 0.0000000000000000e+00  -3.2089169548861771e-03 -6.3078315075867936e-03 0.0000000000000000e+00  -1.2055814862834034e-03 -5.9208467353597518e-03 0.0000000000000000e+00  0.0000000000000000e+00 0.0000000000000000e+00 0.0000000000000000e+00  0.0000000000000000e+00 0.0000000000000000e+00 0.0000000000000000e+00  -1.1877102869792746e-03 7.2422904686380305e-03 0.0000000000000000e+00  -3.1692742363847110e-03 7.7410520603559295e-03 0.0000000000000000e+00  -5.1143512192531266e-03 7.3578090113107656e-03 0.0000000000000000e+00  -6.9306975239120088e-03 6.7621344560145477e-03 0.0000000000000000e+00  -8.5703546660693963e-03 5.9979275246476111e-03 0.0000000000000000e+00  -9.9956016702673553e-03 5.0858453811540964e-03 0.0000000000000000e+00  -1.1174261732271923e-02 4.0469677204728778e-03 0.0000000000000000e+00  -1.2079797117221397e-02 2.9026085923549590e-03 0.0000000000000000e+00  -1.2690302672118696e-02 1.6741007242922267e-03 0.0000000000000000e+00  -1.2987717975447954e-02 3.8324049251889960e-04 0.0000000000000000e+00  -1.2957382722150980e-02 -9.4660744593710563e-04 0.0000000000000000e+00  -1.2588294041550013e-02 -2.2889503761396408e-03 0.0000000000000000e+00  -1.1874308042917508e-02 -3.6125153382152364e-03 0.0000000000000000e+00  -1.0816418801998809e-02 -4.8800290382144847e-03 0.0000000000000000e+00  -9.4257039706534002e-03 -6.0480458016987015e-03 0.0000000000000000e+00  -7.7275419162222813e-03 -7.0683428330233630e-03 0.0000000000000000e+00  -5.7617062291932435e-03 -7.8899800932161826e-03 0.0000000000000000e+00  -3.5954381448134952e-03 -8.4244363233825659e-03 0.0000000000000000e+00  -1.3512671790376852e-03 -7.9221167234398166e-03 0.0000000000000000e+00  0.0000000000000000e+00 0.0000000000000000e+00 0.0000000000000000e+00  0.0000000000000000e+00 0.0000000000000000e+00 0.0000000000000000e+00  -1.3227309525474949e-03 9.2121561292867072e-03 0.0000000000000000e+00  -3.5283672720015698e-03 9.8386830512553914e-03 0.0000000000000000e+00  -5.6905750379430383e-03 9.3484856474654598e-03 0.0000000000000000e+00  -7.7061942374118397e-03 8.5882238128759149e-03 0.0000000000000000e+00  -9.5231889809057595e-03 7.6165539267135877e-03 0.0000000000000000e+00  -1.1101914905904117e-02 6.4614094497455372e-03 0.0000000000000000e+00  -1.2409900929605354e-02 5.1503134801259391e-03 0.0000000000000000e+00  -1.3421129374528894e-02 3.7098606505732061e-03 0.0000000000000000e+00  -1.4114130436819305e-02 2.1653387923015895e-03 0.0000000000000000e+00  -1.4470271430937820e-02 5.4141247033756329e-04 0.0000000000000000e+00  -1.4472539481721726e-02 -1.1361195008741207e-03 0.0000000000000000e+00  -1.4105340685951985e-02 -2.8377272904236213e-03 0.0000000000000000e+00  -1.3355763527281354e-02 -4.5271712506782819e-03 0.0000000000000000e+00  -1.2216674242367156e-02 -6.1588847223123114e-03 0.0000000000000000e+00  -1.0691307524852743e-02 -7.6767315554738119e-03 0.0000000000000000e+00  -8.8001814279372679e-03 -9.0152131749340683e-03 0.0000000000000000e+00  -6.5832613157706431e-03 -1.0102464394895804e-02 0.0000000000000000e+00  -4.1176945843646208e-03 -1.0817855734897464e-02 0.0000000000000000e+00  -1.5489770481046025e-03 -1.0191591142505231e-02 0.0000000000000000e+00  0.0000000000000000e+00 0.0000000000000000e+00 0.0000000000000000e+00  0.0000000000000000e+00 0.0000000000000000e+00 0.0000000000000000e+00  -1.4942833202904974e-03 1.1422529034237577e-02 0.0000000000000000e+00  -3.9836395268255213e-03 1.2188619514855021e-02 0.0000000000000000e+00  -6.4184158327088570e-03 1.1573898209080393e-02 0.0000000000000000e+00  -8.6814336399971791e-03 1.0624907293010220e-02 0.0000000000000000e+00  -1.0715665620283048e-02 9.4186611256440959e-03 0.0000000000000000e+00  -1.2480007372398128e-02 7.9927698066423695e-03 0.0000000000000000e+00  -1.3943048697882949e-02 6.3827789265685723e-03 0.0000000000000000e+00  -1.5081132488457929e-02 4.6210560931144581e-03 0.0000000000000000e+00  -1.5875041434387237e-02 2.7361567245637211e-03 0.0000000000000000e+00  -1.6306865077647163e-02 7.5381871729127787e-04 0.0000000000000000e+00  -1.6357515315919734e-02 -1.3003926674497387e-03 0.0000000000000000e+00  -1.6005602352280456e-02 -3.3970105658182640e-03 0.0000000000000000e+00  -1.5228401901760726e-02 -5.4976255343966276e-03 0.0000000000000000e+00  -1.4005740288627999e-02 -7.5497922693540170e-03 0.0000000000000000e+00  -1.2326835904132385e-02 -9.4834529382134443e-03 0.0000000000000000e+00  -1.0201538412698745e-02 -1.1210987525353659e-02 0.0000000000000000e+00  -7.6665229243078909e-03 -1.2631084100105818e-02 0.0000000000000000e+00  -4.8107794406481406e-03 -1.3578468956725138e-02 0.0000000000000000e+00  -1.8124162353162963e-03 -1.2820354892469694e-02 0.0000000000000000e+00  0.0000000000000000e+00 0.0000000000000000e+00 0.0000000000000000e+00  0.0000000000000000e+00 0.0000000000000000e+00 0.0000000000000000e+00  -1.7094747114383137e-03 1.3935844091085890e-02 0.0000000000000000e+00  -4.5529443804139353e-03 1.4853831619950682e-02 0.0000000000000000e+00  -7.3239116593042256e-03 1.4089249192231146e-02 0.0000000000000000e+00  -9.8871548866220089e-03 1.2917746870429131e-02 0.0000000000000000e+00  -1.2179849412808905e-02 1.1440205470347782e-02 0.0000000000000000e+00  -1.4160675918950103e-02 9.7077297941958757e-03 0.0000000000000000e+00  -1.5801897265732220e-02 7.7663433644858827e-03 0.0000000000000000e+00  -1.7085503593543813e-02 5.6549529931075333e-03 0.0000000000000000e+00  -1.7997790698648864e-02 3.4043836132983600e-03 0.0000000000000000e+00  -1.8524156363485821e-02 1.0387707991080623e-03 0.0000000000000000e+00  -1.8644694819766536e-02 -1.4207040266733797e-03 0.0000000000000000e+00  -1.8331390518351406e-02 -3.9498373457253887e-03 0.0000000000000000e+00  -1.7547935949134851e-02 -6.5133800288452951e-03 0.0000000000000000e+00  -1.6253913654566545e-02 -9.0558527747053794e-03 0.0000000000000000e+00  -1.4414298124841636e-02 -1.1493429386492345e-02 0.0000000000000000e+00  -1.2017275313785750e-02 -1.3710499045521173e-02 0.0000000000000000e+00  -9.0880357071043520e-03 -1.5563205623866922e-02 0.0000000000000000e+00  -5.7281780471563565e-03 -1.6820950415110392e-02 0.0000000000000000e+00  -2.1625625340126087e-03 -1.5926127566645579e-02 0.0000000000000000e+00  0.0000000000000000e+00 0.0000000000000000e+00 0.0000000000000000e+00  0.0000000000000000e+00 0.0000000000000000e+00 0.0000000000000000e+00  -1.9789621349386951e-03 1.6827887469859575e-02 0.0000000000000000e+00  -5.2624703539252147e-03 1.7908908654231909e-02 0.0000000000000000e+00  -8.4443565812196211e-03 1.6957126592178060e-02 0.0000000000000000e+00  -1.1366040278173372e-02 1.5515050101026846e-02 0.0000000000000000e+00  -1.3958405275821173e-02 1.3715967580572334e-02 0.0000000000000000e+00  -1.6182573246937035e-02 1.1630406313562080e-02 0.0000000000000000e+00  -1.8019086728539243e-02 9.3185246028298155e-03 0.0000000000000000e+00  -1.9461015404126702e-02 6.8268665767070502e-03 0.0000000000000000e+00  -2.0505503697831311e-02 4.1871273127978307e-03 0.0000000000000000e+00  -2.1145795575846466e-02 1.4180745277170038e-03 0.0000000000000000e+00  -2.1364187834570173e-02 -1.4695417431164278e-03 0.0000000000000000e+00  -2.1126347151079881e-02 -4.4648489448553107e-03 0.0000000000000000e+00  -2.0378483577766764e-02 -7.5450544079745715e-03 0.0000000000000000e+00  -1.9050472825605170e-02 -1.0660495345961323e-02 0.0000000000000000e+00  -1.7066734811642541e-02 -1.3718238882461438e-02 0.0000000000000000e+00  -1.4372980439466264e-02 -1.6568801072031833e-02 0.0000000000000000e+00  -1.0964589743565876e-02 -1.9004983916415200e-02 0.0000000000000000e+00  -6.9532504353528425e-03 -2.0695745953311903e-02 0.0000000000000000e+00  -2.6323033179203271e-03 -1.9667601077376029e-02 0.0000000000000000e+00  0.0000000000000000e+00 0.0000000000000000e+00 0.0000000000000000e+00  0.0000000000000000e+00 0.0000000000000000e+00 0.0000000000000000e+00  -2.3191461789897109e-03 2.0194402399022166e-02 0.0000000000000000e+00  -6.1515732243268353e-03 2.1444906230779878e-02 0.0000000000000000e+00  -9.8343031744351651e-03 2.0249487520430594e-02 0.0000000000000000e+00  -1.3178322995697454e-02 1.8467039636797557e-02 0.0000000000000000e+00  -1.6108696679012251e-02 1.6276576783630457e-02 0.0000000000000000e+00  -1.8594237809668939e-02 1.3777054775925121e-02 0.0000000000000000e+00  -2.0631550309022615e-02 1.1047898109449028e-02 0.0000000000000000e+00  -2.2233271577985454e-02 8.1446067535620829e-03 0.0000000000000000e+00  -2.3415493735405923e-02 5.0977565519057548e-03 0.0000000000000000e+00  -2.4186521159902826e-02 1.9157888857465385e-03 0.0000000000000000e+00  -2.4536472167437443e-02 -1.4088684856792884e-03 0.0000000000000000e+00  -2.4427562905534314e-02 -4.8899233305419584e-03 0.0000000000000000e+00  -2.3787393352842079e-02 -8.5329523571314545e-03 0.0000000000000000e+00  -2.2505665848065674e-02 -1.2313441285087148e-02 0.0000000000000000e+00  -2.0439772218617064e-02 -1.6142737632930830e-02 0.0000000000000000e+00  -1.7454663187494994e-02 -1.9831947203675617e-02 0.0000000000000000e+00  -1.3478535650949116e-02 -2.3081354797682800e-02 0.0000000000000000e+00  -8.6214867499827107e-03 -2.5405054899145428e-02 0.0000000000000000e+00  -3.2774593593542915e-03 -2.4272460295846832e-02 0.0000000000000000e+00  0.0000000000000000e+00 0.0000000000000000e+00 0.0000000000000000e+00  0.0000000000000000e+00 0.0000000000000000e+00 0.0000000000000000e+00  -2.7561755494373281e-03 2.4161857197911953e-02 0.0000000000000000e+00  -7.2812103793503460e-03 2.5576697699201782e-02 0.0000000000000000e+00  -1.1575550062602571e-02 2.4049908916394556e-02 0.0000000000000000e+00  -1.5410636883987423e-02 2.1823432804380469e-02 0.0000000000000000e+00  -1.8708841436009208e-02 1.9142973473317164e-02 0.0000000000000000e+00  -2.1456844665240588e-02 1.6149130803925129e-02 0.0000000000000000e+00  -2.3680171752639062e-02 1.2947034646804280e-02 0.0000000000000000e+00  -2.5423652592531893e-02 9.6020288219204226e-03 0.0000000000000000e+00  -2.6733673278971123e-02 6.1405497785236435e-03 0.0000000000000000e+00  -2.7643678686398079e-02 2.5549041215217816e-03 0.0000000000000000e+00  -2.8160525964631790e-02 -1.1896775863797567e-03 0.0000000000000000e+00  -2.8252981114075863e-02 -5.1473070453364822e-03 0.0000000000000000e+00  -2.7836426050793037e-02 -9.3784385410263810e-03 0.0000000000000000e+00  -2.6744980915149538e-02 -1.3911182889568111e-02 0.0000000000000000e+00  -2.4735933284666344e-02 -1.8681634103190115e-02 0.0000000000000000e+00  -2.1540032241903036e-02 -2.3485815451983163e-02 0.0000000000000000e+00  -1.6934684314804688e-02 -2.7927004537854412e-02 0.0000000000000000e+00  -1.0968688173896757e-02 -3.1256881330487540e-02 0.0000000000000000e+00  -4.1902815366500062e-03 -3.0102349181843534e-02 0.0000000000000000e+00  0.0000000000000000e+00 0.0000000000000000e+00 0.0000000000000000e+00  0.0000000000000000e+00 0.0000000000000000e+00 0.0000000000000000e+00  -3.3335453635401726e-03 2.8905485298014722e-02 0.0000000000000000e+00  -8.7490626849321788e-03 3.0454118081801623e-02 0.0000000000000000e+00  -1.3793992449765535e-02 2.8455492344341839e-02 0.0000000000000000e+00  -1.8189798825396002e-02 2.5627733715009537e-02 0.0000000000000000e+00  -2.1866146541157937e-02 2.2316563886788106e-02 0.0000000000000000e+00  -2.4847360079764891e-02 1.8722371490437394e-02 0.0000000000000000e+00  -2.7208820805783070e-02 1.4982217942308520e-02 0.0000000000000000e+00  -2.9045305975751237e-02 1.1169862868833171e-02 0.0000000000000000e+00  -3.0447653378655789e-02 7.3026570621974232e-03 0.0000000000000000e+00  -3.1486330568724422e-02 3.3504953061287801e-03 0.0000000000000000e+00  -3.2199276650913211e-02 -7.5884852223168271e-04 0.0000000000000000e+00  -3.2583120270444306e-02 -5.1372958641067853e-03 0.0000000000000000e+00  -3.2541310002975256e-02 -9.9105367921005477e-03 0.0000000000000000e+00  -3.1855909131723939e-02 -1.5178784538059424e-02 0.0000000000000000e+00  -3.0220844297024440e-02 -2.1033905536599829e-02 0.0000000000000000e+00  -2.7105271537997980e-02 -2.7451591396649381e-02 0.0000000000000000e+00  -2.1881488581111049e-02 -3.3848565968584508e-02 0.0000000000000000e+00  -1.4378317902404814e-02 -3.8811311026850454e-02 0.0000000000000000e+00  -5.4875444370506305e-03 -3.7644981926481205e-02 0.0000000000000000e+00  0.0000000000000000e+00 0.0000000000000000e+00 0.0000000000000000e+00  0.0000000000000000e+00 0.0000000000000000e+00 0.0000000000000000e+00  -4.1272933444985284e-03 3.4680427966177194e-02 0.0000000000000000e+00  -1.0717496083587467e-02 3.6279172571370810e-02 0.0000000000000000e+00  -1.6688521084452835e-02 3.3576153083830447e-02 0.0000000000000000e+00  -2.1703716630002666e-02 2.9904393300716696e-02 0.0000000000000000e+00  -2.5727590982979279e-02 2.5761831454276563e-02 0.0000000000000000e+00  -2.8860707422397550