<?xml version="1.0"?>
<VTKFile type="UnstructuredGrid"  version="0.1"  >
<UnstructuredGrid>
<Piece  NumberOfPoints="441" NumberOfCells="800">
<Points>
<DataArray  type="Float64"  NumberOfComponents="3"  format="ascii">0 0 0  0.05 0 0  0.1 0 0  0.15 0 0  0.2 0 0  0.25 0 0  0.3 0 0  0.35 0 0  0.4 0 0  0.45 0 0  0.5 0 0  0.55 0 0  0.6 0 0  0.65 0 0  0.7 0 0  0.75 0 0  0.8 0 0  0.85 0 0  0.9 0 0  0.95 0 0  1 0 0  0 0.05 0  0.05 0.05 0  0.1 0.05 0  0.15 0.05 0  0.2 0.05 0  0.25 0.05 0  0.3 0.05 0  0.35 0.05 0  0.4 0.05 0  0.45 0.05 0  0.5 0.05 0  0.55 0.05 0  0.6 0.05 0  0.65 0.05 0  0.7 0.05 0  0.75 0.05 0  0.8 0.05 0  0.85 0.05 0  0.9 0.05 0  0.95 0.05 0  1 0.05 0  0 0.1 0  0.05 0.1 0  0.1 0.1 0  0.15 0.1 0  0.2 0.1 0  0.25 0.1 0  0.3 0.1 0  0.35 0.1 0  0.4 0.1 0  0.45 0.1 0  0.5 0.1 0  0.55 0.1 0  0.6 0.1 0  0.65 0.1 0  0.7 0.1 0  0.75 0.1 0  0.8 0.1 0  0.85 0.1 0  0.9 0.1 0  0.95 0.1 0  1 0.1 0  0 0.15 0  0.05 0.15 0  0.1 0.15 0  0.15 0.15 0  0.2 0.15 0  0.25 0.15 0  0.3 0.15 0  0.35 0.15 0  0.4 0.15 0  0.45 0.15 0  0.5 0.15 0  0.55 0.15 0  0.6 0.15 0  0.65 0.15 0  0.7 0.15 0  0.75 0.15 0  0.8 0.15 0  0.85 0.15 0  0.9 0.15 0  0.95 0.15 0  1 0.15 0  0 0.2 0  0.05 0.2 0  0.1 0.2 0  0.15 0.2 0  0.2 0.2 0  0.25 0.2 0  0.3 0.2 0  0.35 0.2 0  0.4 0.2 0  0.45 0.2 0  0.5 0.2 0  0.55 0.2 0  0.6 0.2 0  0.65 0.2 0  0.7 0.2 0  0.75 0.2 0  0.8 0.2 0  0.85 0.2 0  0.9 0.2 0  0.95 0.2 0  1 0.2 0  0 0.25 0  0.05 0.25 0  0.1 0.25 0  0.15 0.25 0  0.2 0.25 0  0.25 0.25 0  0.3 0.25 0  0.35 0.25 0  0.4 0.25 0  0.45 0.25 0  0.5 0.25 0  0.55 0.25 0  0.6 0.25 0  0.65 0.25 0  0.7 0.25 0  0.75 0.25 0  0.8 0.25 0  0.85 0.25 0  0.9 0.25 0  0.95 0.25 0  1 0.25 0  0 0.3 0  0.05 0.3 0  0.1 0.3 0  0.15 0.3 0  0.2 0.3 0  0.25 0.3 0  0.3 0.3 0  0.35 0.3 0  0.4 0.3 0  0.45 0.3 0  0.5 0.3 0  0.55 0.3 0  0.6 0.3 0  0.65 0.3 0  0.7 0.3 0  0.75 0.3 0  0.8 0.3 0  0.85 0.3 0  0.9 0.3 0  0.95 0.3 0  1 0.3 0  0 0.35 0  0.05 0.35 0  0.1 0.35 0  0.15 0.35 0  0.2 0.35 0  0.25 0.35 0  0.3 0.35 0  0.35 0.35 0  0.4 0.35 0  0.45 0.35 0  0.5 0.35 0  0.55 0.35 0  0.6 0.35 0  0.65 0.35 0  0.7 0.35 0  0.75 0.35 0  0.8 0.35 0  0.85 0.35 0  0.9 0.35 0  0.95 0.35 0  1 0.35 0  0 0.4 0  0.05 0.4 0  0.1 0.4 0  0.15 0.4 0  0.2 0.4 0  0.25 0.4 0  0.3 0.4 0  0.35 0.4 0  0.4 0.4 0  0.45 0.4 0  0.5 0.4 0  0.55 0.4 0  0.6 0.4 0  0.65 0.4 0  0.7 0.4 0  0.75 0.4 0  0.8 0.4 0  0.85 0.4 0  0.9 0.4 0  0.95 0.4 0  1 0.4 0  0 0.45 0  0.05 0.45 0  0.1 0.45 0  0.15 0.45 0  0.2 0.45 0  0.25 0.45 0  0.3 0.45 0  0.35 0.45 0  0.4 0.45 0  0.45 0.45 0  0.5 0.45 0  0.55 0.45 0  0.6 0.45 0  0.65 0.45 0  0.7 0.45 0  0.75 0.45 0  0.8 0.45 0  0.85 0.45 0  0.9 0.45 0  0.95 0.45 0  1 0.45 0  0 0.5 0  0.05 0.5 0  0.1 0.5 0  0.15 0.5 0  0.2 0.5 0  0.25 0.5 0  0.3 0.5 0  0.35 0.5 0  0.4 0.5 0  0.45 0.5 0  0.5 0.5 0  0.55 0.5 0  0.6 0.5 0  0.65 0.5 0  0.7 0.5 0  0.75 0.5 0  0.8 0.5 0  0.85 0.5 0  0.9 0.5 0  0.95 0.5 0  1 0.5 0  0 0.55 0  0.05 0.55 0  0.1 0.55 0  0.15 0.55 0  0.2 0.55 0  0.25 0.55 0  0.3 0.55 0  0.35 0.55 0  0.4 0.55 0  0.45 0.55 0  0.5 0.55 0  0.55 0.55 0  0.6 0.55 0  0.65 0.55 0  0.7 0.55 0  0.75 0.55 0  0.8 0.55 0  0.85 0.55 0  0.9 0.55 0  0.95 0.55 0  1 0.55 0  0 0.6 0  0.05 0.6 0  0.1 0.6 0  0.15 0.6 0  0.2 0.6 0  0.25 0.6 0  0.3 0.6 0  0.35 0.6 0  0.4 0.6 0  0.45 0.6 0  0.5 0.6 0  0.55 0.6 0  0.6 0.6 0  0.65 0.6 0  0.7 0.6 0  0.75 0.6 0  0.8 0.6 0  0.85 0.6 0  0.9 0.6 0  0.95 0.6 0  1 0.6 0  0 0.65 0  0.05 0.65 0  0.1 0.65 0  0.15 0.65 0  0.2 0.65 0  0.25 0.65 0  0.3 0.65 0  0.35 0.65 0  0.4 0.65 0  0.45 0.65 0  0.5 0.65 0  0.55 0.65 0  0.6 0.65 0  0.65 0.65 0  0.7 0.65 0  0.75 0.65 0  0.8 0.65 0  0.85 0.65 0  0.9 0.65 0  0.95 0.65 0  1 0.65 0  0 0.7 0  0.05 0.7 0  0.1 0.7 0  0.15 0.7 0  0.2 0.7 0  0.25 0.7 0  0.3 0.7 0  0.35 0.7 0  0.4 0.7 0  0.45 0.7 0  0.5 0.7 0  0.55 0.7 0  0.6 0.7 0  0.65 0.7 0  0.7 0.7 0  0.75 0.7 0  0.8 0.7 0  0.85 0.7 0  0.9 0.7 0  0.95 0.7 0  1 0.7 0  0 0.75 0  0.05 0.75 0  0.1 0.75 0  0.15 0.75 0  0.2 0.75 0  0.25 0.75 0  0.3 0.75 0  0.35 0.75 0  0.4 0.75 0  0.45 0.75 0  0.5 0.75 0  0.55 0.75 0  0.6 0.75 0  0.65 0.75 0  0.7 0.75 0  0.75 0.75 0  0.8 0.75 0  0.85 0.75 0  0.9 0.75 0  0.95 0.75 0  1 0.75 0  0 0.8 0  0.05 0.8 0  0.1 0.8 0  0.15 0.8 0  0.2 0.8 0  0.25 0.8 0  0.3 0.8 0  0.35 0.8 0  0.4 0.8 0  0.45 0.8 0  0.5 0.8 0  0.55 0.8 0  0.6 0.8 0  0.65 0.8 0  0.7 0.8 0  0.75 0.8 0  0.8 0.8 0  0.85 0.8 0  0.9 0.8 0  0.95 0.8 0  1 0.8 0  0 0.85 0  0.05 0.85 0  0.1 0.85 0  0.15 0.85 0  0.2 0.85 0  0.25 0.85 0  0.3 0.85 0  0.35 0.85 0  0.4 0.85 0  0.45 0.85 0  0.5 0.85 0  0.55 0.85 0  0.6 0.85 0  0.65 0.85 0  0.7 0.85 0  0.75 0.85 0  0.8 0.85 0  0.85 0.85 0  0.9 0.85 0  0.95 0.85 0  1 0.85 0  0 0.9 0  0.05 0.9 0  0.1 0.9 0  0.15 0.9 0  0.2 0.9 0  0.25 0.9 0  0.3 0.9 0  0.35 0.9 0  0.4 0.9 0  0.45 0.9 0  0.5 0.9 0  0.55 0.9 0  0.6 0.9 0  0.65 0.9 0  0.7 0.9 0  0.75 0.9 0  0.8 0.9 0  0.85 0.9 0  0.9 0.9 0  0.95 0.9 0  1 0.9 0  0 0.95 0  0.05 0.95 0  0.1 0.95 0  0.15 0.95 0  0.2 0.95 0  0.25 0.95 0  0.3 0.95 0  0.35 0.95 0  0.4 0.95 0  0.45 0.95 0  0.5 0.95 0  0.55 0.95 0  0.6 0.95 0  0.65 0.95 0  0.7 0.95 0  0.75 0.95 0  0.8 0.95 0  0.85 0.95 0  0.9 0.95 0  0.95 0.95 0  1 0.95 0  0 1 0  0.05 1 0  0.1 1 0  0.15 1 0  0.2 1 0  0.25 1 0  0.3 1 0  0.35 1 0  0.4 1 0  0.45 1 0  0.5 1 0  0.55 1 0  0.6 1 0  0.65 1 0  0.7 1 0  0.75 1 0  0.8 1 0  0.85 1 0  0.9 1 0  0.95 1 0  1 1 0  </DataArray>
</Points>
<Cells>
[...]
<PointData  Vectors="f_137"> 
<DataArray  type="Float64"  Name="f_137"  NumberOfComponents="3" format="ascii">0.0000000000000000e+00 0.0000000000000000e+00 0.0000000000000000e+00  0.0000000000000000e+00 0.0000000000000000e+00 0.0000000000000000e+00  0.0000000000000000e+00 0.0000000000000000e+00 0.0000000000000000e+00  0.0000000000000000e+00 0.0000000000000000e+00 0.0000000000000000e+00  0.0000000000000000e+00 0.0000000000000000e+00 0.0000000000000000e+00  0.0000000000000000e+00 0.0000000000000000e+00 0.0000000000000000e+00  0.0000000000000000e+00 0.0000000000000000e+00 0.0000000000000000e+00  0.0000000000000000e+00 0.0000000000000000e+00 0.0000000000000000e+00  0.0000000000000000e+00 0.0000000000000000e+00 0.0000000000000000e+00  0.0000000000000000e+00 0.0000000000000000e+00 0.0000000000000000e+00  0.0000000000000000e+00 0.0000000000000000e+00 0.0000000000000000e+00  0.0000000000000000e+00 0.0000000000000000e+00 0.0000000000000000e+00  0.0000000000000000e+00 0.0000000000000000e+00 0.0000000000000000e+00  0.0000000000000000e+00 0.0000000000000000e+00 0.0000000000000000e+00  0.0000000000000000e+00 0.0000000000000000e+00 0.0000000000000000e+00  0.0000000000000000e+00 0.0000000000000000e+00 0.0000000000000000e+00  0.0000000000000000e+00 0.0000000000000000e+00 0.0000000000000000e+00  0.0000000000000000e+00 0.0000000000000000e+00 0.0000000000000000e+00  0.0000000000000000e+00 0.0000000000000000e+00 0.0000000000000000e+00  0.0000000000000000e+00 0.0000000000000000e+00 0.0000000000000000e+00  0.0000000000000000e+00 0.0000000000000000e+00 0.0000000000000000e+00  0.0000000000000000e+00 0.0000000000000000e+00 0.0000000000000000e+00  -8.3402798034465950e-04 8.2611050093467874e-04 0.0000000000000000e+00  -2.2551886830823480e-03 9.0668746483805540e-04 0.0000000000000000e+00  -3.6641172832631006e-03 8.5868290112214407e-04 0.0000000000000000e+00  -4.9785258676384187e-03 7.9109016850510987e-04 0.0000000000000000e+00  -6.1680829402003057e-03 7.0352077823324457e-04 0.0000000000000000e+00  -7.2015915718460066e-03 5.9790546870810328e-04 0.0000000000000000e+00  -8.0524274351834284e-03 4.7635130152662037e-04 0.0000000000000000e+00  -8.6976818143722889e-03 3.4122441022514508e-04 0.0000000000000000e+00  -9.1186522548729800e-03 1.9516992560605041e-04 0.0000000000000000e+00  -9.3012216606372482e-03 4.1137948705626959e-05 0.0000000000000000e+00  -9.2362982647164749e-03 -1.1754155777136506e-04 0.0000000000000000e+00  -8.9203760723084273e-03 -2.7707692472505143e-04 0.0000000000000000e+00  -8.3561989895637109e-03 -4.3316117745838880e-04 0.0000000000000000e+00  -7.5534863477701025e-03 -5.8099350525185340e-04 0.0000000000000000e+00  -6.5294950683892974e-03 -7.1539091708030221e-04 0.0000000000000000e+00  -5.3094901222574126e-03 -8.3109724443899784e-04 0.0000000000000000e+00  -3.9262965174569724e-03 -9.2281132621240133e-04 0.0000000000000000e+00  -2.4259657575478638e-03 -9.7761549977939326e-04 0.0000000000000000e+00  -8.8669265885353674e-04 -8.8569384136436306e-04 0.0000000000000000e+00  0.0000000000000000e+00 0.0000000000000000e+00 0.0000000000000000e+00  0.0000000000000000e+00 0.0000000000000000e+00 0.0000000000000000e+00  -9.6758238100985651e-04 2.2812691960308004e-03 0.0000000000000000e+00  -2.5813935207290475e-03 2.4695937855097692e-03 0.0000000000000000e+00  -4.1711388129466852e-03 2.3484982660550249e-03 0.0000000000000000e+00  -5.6580576562084844e-03 2.1612279543584498e-03 0.0000000000000000e+00  -7.0015858003241354e-03 1.9192404797651146e-03 0.0000000000000000e+00  -8.1676233069462936e-03 1.6283399961479793e-03 0.0000000000000000e+00  -9.1264984324691302e-03 1.2946657050017798e-03 0.0000000000000000e+00  -9.8529498581870385e-03 9.2503240927689862e-04 0.0000000000000000e+00  -1.0326524707017325e-02 5.2683659861630142e-04 0.0000000000000000e+00  -1.0531816010266877e-02 1.0814733334771183e-04 0.0000000000000000e+00  -1.0458848776431490e-02 -3.2209532071903412e-04 0.0000000000000000e+00  -1.0103638402400458e-02 -7.5384421340039657e-04 0.0000000000000000e+00  -9.4689333130840037e-03 -1.1757675423373515e-03 0.0000000000000000e+00  -8.5650999761246738e-03 -1.5752458922773873e-03 0.0000000000000000e+00  -7.4108425038691183e-03 -1.9386504233193517e-03 0.0000000000000000e+00  -6.0343454927840557e-03 -2.2519088225792625e-03 0.0000000000000000e+00  -4.4718968306677927e-03 -2.5009360199904121e-03 0.0000000000000000e+00  -2.7745762296059891e-03 -2.6556396047427017e-03 0.0000000000000000e+00  -1.0375780769247339e-03 -2.4640824627212652e-03 0.0000000000000000e+00  0.0000000000000000e+00 0.0000000000000000e+00 0.0000000000000000e+00  0.0000000000000000e+00 0.0000000000000000e+00 0.0000000000000000e+00  -1.0147202950858574e-03 3.8420300371462858e-03 0.0000000000000000e+00  -2.7200790278459007e-03 4.1375218910404176e-03 0.0000000000000000e+00  -4.3982807173792151e-03 3.9350301435794287e-03 0.0000000000000000e+00  -5.9682549477862584e-03 3.6196117898530280e-03 0.0000000000000000e+00  -7.3870491615696454e-03 3.2127053912189311e-03 0.0000000000000000e+00  -8.6197427617503587e-03 2.7243315747246880e-03 0.0000000000000000e+00  -9.6355286326343294e-03 2.1652287956303680e-03 0.0000000000000000e+00  -1.0408386156087860e-02 1.5469158238500078e-03 0.0000000000000000e+00  -1.0917063066516859e-02 8.8164542522345803e-04 0.0000000000000000e+00  -1.1145162617966910e-02 1.8258815652150598e-04 0.0000000000000000e+00  -1.1081411324829865e-02 -5.3578192024453231e-04 0.0000000000000000e+00  -1.0720209723999631e-02 -1.2571975592075586e-03 0.0000000000000000e+00  -1.0062519890268223e-02 -1.9631776756488879e-03 0.0000000000000000e+00  -9.1170650977868313e-03 -2.6328898786039927e-03 0.0000000000000000e+00  -7.9015122253497990e-03 -3.2434963390486028e-03 0.0000000000000000e+00  -6.4441189192912841e-03 -3.7710712868301486e-03 0.0000000000000000e+00  -4.7824623900483264e-03 -4.1911768688978205e-03 0.0000000000000000e+00  -2.9715172269401120e-03 -4.4572026701895197e-03 0.0000000000000000e+00  -1.1120281636206779e-03 -4.1531085871913528e-03 0.0000000000000000e+00  0.0000000000000000e+00 0.0000000000000000e+00 0.0000000000000000e+00  0.0000000000000000e+00 0.0000000000000000e+00 0.0000000000000000e+00  -1.0897731048594393e-03 5.4987273526428447e-03 0.0000000000000000e+00  -2.9213252299039485e-03 5.9134446018919871e-03 0.0000000000000000e+00  -4.7238357582931236e-03 5.6246132450954575e-03 0.0000000000000000e+00  -6.4094925795363800e-03 5.1730153803676206e-03 0.0000000000000000e+00  -7.9328738098616170e-03 4.5912923263494278e-03 0.0000000000000000e+00  -9.2576019496025085e-03 3.8944389284024899e-03 0.0000000000000000e+00  -1.0351827026625886e-02 3.0980486338126876e-03 0.0000000000000000e+00  -1.1188825320183032e-02 2.2184242075861419e-03 0.0000000000000000e+00  -1.1746555927613270e-02 1.2725074755753089e-03 0.0000000000000000e+00  -1.2007446805543004e-02 2.7817617156640397e-04 0.0000000000000000e+00  -1.1958414918478866e-02 -7.4506935340603187e-04 0.0000000000000000e+00  -1.1591353842694710e-02 -1.7751874724362818e-03 0.0000000000000000e+00  -1.0904210812622909e-02 -2.7867108621144007e-03 0.0000000000000000e+00  -9.9026809031087879e-03 -3.7502484449868437e-03 0.0000000000000000e+00  -8.6021144004583879e-03 -4.6327427444041586e-03 0.0000000000000000e+00  -7.0301862975868856e-03 -5.3986945013791985e-03 0.0000000000000000e+00  -5.2260704116116521e-03 -6.0113804565871051e-03 0.0000000000000000e+00  -3.2503990905170441e-03 -6.4041630102962301e-03 0.0000000000000000e+00  -1.2161178610347603e-03 -5.9817986188484239e-03 0.0000000000000000e+00  0.0000000000000000e+00 0.0000000000000000e+00 0.0000000000000000e+00  0.0000000000000000e+00 0.0000000000000000e+00 0.0000000000000000e+00  -1.1931278307032837e-03 7.2971583272724129e-03 0.0000000000000000e+00  -3.1978992337529087e-03 7.8396153131965775e-03 0.0000000000000000e+00  -5.1699882193912434e-03 7.4556717702748115e-03 0.0000000000000000e+00  -7.0125629919587660e-03 6.8556061072210213e-03 0.0000000000000000e+00  -8.6770953828026378e-03 6.0847252057019460e-03 0.0000000000000000e+00  -1.0125315078746668e-02 5.1637738446212696e-03 0.0000000000000000e+00  -1.1324480938961117e-02 4.1137594972401430e-03 0.0000000000000000e+00  -1.2247458564481737e-02 2.9559406978998111e-03 0.0000000000000000e+00  -1.2871706374156361e-02 1.7116428860439569e-03 0.0000000000000000e+00  -1.3178491406982698e-02 4.0273586214306358e-04 0.0000000000000000e+00  -1.3152456434313136e-02 -9.4721679926329007e-04 0.0000000000000000e+00  -1.2781909027847167e-02 -2.3113434187856073e-03 0.0000000000000000e+00  -1.2060082942704537e-02 -3.6577556888125490e-03 0.0000000000000000e+00  -1.0987518447735291e-02 -4.9482882885622612e-03 0.0000000000000000e+00  -9.5751220819122601e-03 -6.1383277821493529e-03 0.0000000000000000e+00  -7.8485503166515671e-03 -7.1782441872688708e-03 0.0000000000000000e+00  -5.8484297364929400e-03 -8.0153612082914279e-03 0.0000000000000000e+00  -3.6434393573219720e-03 -8.5578395987391774e-03 0.0000000000000000e+00  -1.3636606020226926e-03 -8.0084369415960206e-03 0.0000000000000000e+00  0.0000000000000000e+00 0.0000000000000000e+00 0.0000000000000000e+00  0.0000000000000000e+00 0.0000000000000000e+00 0.0000000000000000e+00  -1.3281776628244861e-03 9.2834738936690871e-03 0.0000000000000000e+00  -3.5587520727783993e-03 9.9651346173009452e-03 0.0000000000000000e+00  -5.7501882554347773e-03 9.4741467954111737e-03 0.0000000000000000e+00  -7.7943468858899132e-03 8.7084762927572192e-03 0.0000000000000000e+00  -9.6386302314844085e-03 7.7285536107426561e-03 0.0000000000000000e+00  -1.1242843700959813e-02 6.5624098793874439e-03 0.0000000000000000e+00  -1.2573940875701503e-02 5.2374574292578541e-03 0.0000000000000000e+00  -1.3605276224395583e-02 3.7801859390097147e-03 0.0000000000000000e+00  -1.4314682841601855e-02 2.2158196030806275e-03 0.0000000000000000e+00  -1.4682750954834846e-02 5.6903864250038136e-04 0.0000000000000000e+00  -1.4691605617830474e-02 -1.1342037585259650e-03 0.0000000000000000e+00  -1.4324723920567521e-02 -2.8640017549557855e-03 0.0000000000000000e+00  -1.3568258054859625e-02 -4.5834187769741306e-03 0.0000000000000000e+00  -1.2414260869397193e-02 -6.2457793268279769e-03 0.0000000000000000e+00  -1.0865450562812944e-02 -7.7933859847884998e-03 0.0000000000000000e+00  -8.9424007866991378e-03 -9.1587513935997688e-03 0.0000000000000000e+00  -6.6859378290899411e-03 -1.0267496628595503e-02 0.0000000000000000e+00  -4.1749614744151101e-03 -1.0994389478253090e-02 0.0000000000000000e+00  -1.5640542141389139e-03 -1.0307804398158234e-02 0.0000000000000000e+00  0.0000000000000000e+00 0.0000000000000000e+00 0.0000000000000000e+00  0.0000000000000000e+00 0.0000000000000000e+00 0.0000000000000000e+00  -1.4997161823974315e-03 1.1511334858758980e-02 0.0000000000000000e+00  -4.0160931504943879e-03 1.2345322110838230e-02 0.0000000000000000e+00  -6.4827785829695483e-03 1.1729858824811413e-02 0.0000000000000000e+00  -8.7771399906292746e-03 1.0774556105712969e-02 0.0000000000000000e+00  -1.0841601812811363e-02 9.5586004957644195e-03 0.0000000000000000e+00  -1.2634518151019266e-02 8.1197024866661617e-03 0.0000000000000000e+00  -1.4123902736108461e-02 6.4932434647063126e-03 0.0000000000000000e+00  -1.5285452660602264e-02 4.7114131651841366e-03 0.0000000000000000e+00  -1.6099206561897735e-02 2.8026092169885449e-03 0.0000000000000000e+00  -1.6546379055153947e-02 7.9246860333163579e-04 0.0000000000000000e+00  -1.6606839836032960e-02 -1.2934165645082602e-03 0.0000000000000000e+00  -1.6257973997495609e-02 -3.4253087955213963e-03 0.0000000000000000e+00  -1.5475686264359646e-02 -5.5641211534961489e-03 0.0000000000000000e+00  -1.4238433591548456e-02 -7.6561360849912901e-03 0.0000000000000000e+00  -1.2534319720434402e-02 -9.6292839630782688e-03 0.0000000000000000e+00  -1.0372796643561017e-02 -1.1393164007181876e-02 0.0000000000000000e+00  -7.7913029131597379e-03 -1.2842811250576841e-02 0.0000000000000000e+00  -4.8810026174458260e-03 -1.3806552319494375e-02 0.0000000000000000e+00  -1.8313044363193194e-03 -1.2972848505662845e-02 0.0000000000000000e+00  0.0000000000000000e+00 0.0000000000000000e+00 0.0000000000000000e+00  0.0000000000000000e+00 0.0000000000000000e+00 0.0000000000000000e+00  -1.7147872578815834e-03 1.4043316095865758e-02 0.0000000000000000e+00  -4.5876787181275223e-03 1.5043577776038335e-02 0.0000000000000000e+00  -7.3936780361019633e-03 1.4278475965842551e-02 0.0000000000000000e+00  -9.9915431974995795e-03 1.3099911122646234e-02 0.0000000000000000e+00  -1.2317926187853800e-02 1.1611370848354346e-02 0.0000000000000000e+00  -1.4330986218826653e-02 9.8640593082672031e-03 0.0000000000000000e+00  -1.6002425329117255e-02 7.9037728988106092e-03 0.0000000000000000e+00  -1.7313595109480977e-02 5.7691499680497952e-03 0.0000000000000000e+00  -1.8250035277265996e-02 3.4907281855688578e-03 0.0000000000000000e+00  -1.8796208185846219e-02 1.0923588224908383e-03 0.0000000000000000e+00  -1.8931008931506524e-02 -1.4049923384605581e-03 0.0000000000000000e+00  -1.8624876148466946e-02 -3.9771298615305590e-03 0.0000000000000000e+00  -1.7839559973655453e-02 -6.5883488770872977e-03 0.0000000000000000e+00  -1.6532428065692446e-02 -9.1818795055319032e-03 0.0000000000000000e+00  -1.4666318370712528e-02 -1.1671424385933094e-02 0.0000000000000000e+00  -1.2228125905662315e-02 -1.3937553844844195e-02 0.0000000000000000e+00  -9.2434293540601276e-03 -1.5831063454119953e-02 0.0000000000000000e+00  -5.8165186784027278e-03 -1.7112252945620594e-02 0.0000000000000000e+00  -2.1868419719237356e-03 -1.6123883607000442e-02 0.0000000000000000e+00  0.0000000000000000e+00 0.0000000000000000e+00 0.0000000000000000e+00  0.0000000000000000e+00 0.0000000000000000e+00 0.0000000000000000e+00  -1.9839694582208392e-03 1.6955280541287449e-02 0.0000000000000000e+00  -5.2995762716747915e-03 1.8134893806915769e-02 0.0000000000000000e+00  -8.5200279294322303e-03 1.7183027171876759e-02 0.0000000000000000e+00  -1.1480058758758543e-02 1.5733330532792612e-02 0.0000000000000000e+00  -1.4110067013870888e-02 1.3922178233538612e-02 0.0000000000000000e+00  -1.6370683603677265e-02 1.1820195159312085e-02 0.0000000000000000e+00  -1.8241922957526066e-02 9.4872491084868754e-03 0.0000000000000000e+00  -1.9716258371054684e-02 6.9695235947563831e-03 0.0000000000000000e+00  -2.0790125939400474e-02 4.2982810475257630e-03 0.0000000000000000e+00  -2.1455862606687855e-02 1.4917611328146910e-03 0.0000000000000000e+00  -2.1694518859467972e-02 -1.4398952524653881e-03 0.0000000000000000e+00  -2.1469937283448079e-02 -4.4863563090404134e-03 0.0000000000000000e+00  -2.0725682504657152e-02 -7.6249099258794313e-03 0.0000000000000000e+00  -1.9388236521928882e-02 -1.0804937064205955e-02 0.0000000000000000e+00  -1.7378220572817168e-02 -1.3930897141908713e-02 0.0000000000000000e+00  -1.4638248227308002e-02 -1.6848303567031469e-02 0.0000000000000000e+00  -1.1162912735272774e-02 -1.9341810745027974e-02 0.0000000000000000e+00  -7.0671703664984264e-03 -2.1066674598677240e-02 0.0000000000000000e+00  -2.6641624881840321e-03 -1.9923156424369388e-02 0.0000000000000000e+00  0.0000000000000000e+00 0.0000000000000000e+00 0.0000000000000000e+00  0.0000000000000000e+00 0.0000000000000000e+00 0.0000000000000000e+00  -2.3235669500779291e-03 2.0342973368709705e-02 0.0000000000000000e+00  -6.1909933501964973e-03 2.1710688445615273e-02 0.0000000000000000e+00  -9.9161893379698385e-03 2.0515873331399231e-02 0.0000000000000000e+00  -1.3302690322011427e-02 1.8725489191363479e-02 0.0000000000000000e+00  -1.6275127425122143e-02 1.6522161144847513e-02 0.0000000000000000e+00  -1.8801857239527122e-02 1.4004939527895707e-02 0.0000000000000000e+00  -2.0878995636956631e-02 1.1252908272460825e-02 0.0000000000000000e+00  -2.2518658375770859e-02 8.3211452507947117e-03 0.0000000000000000e+00  -2.3736360938268843e-02 5.2396756071466880e-03 0.0000000000000000e+00  -2.4539704698724223e-02 2.0161386770406672e-03 0.0000000000000000e+00  -2.4917721509069159e-02 -1.3581580317076365e-03 0.0000000000000000e+00  -2.4830653943247405e-02 -4.8981962770493423e-03 0.0000000000000000e+00  -2.4202952631209709e-02 -8.6107712100160667e-03 0.0000000000000000e+00  -2.2919633728745181e-02 -1.2472040603589493e-02 0.0000000000000000e+00  -2.0831349937997540e-02 -1.6391606805090171e-02 0.0000000000000000e+00  -1.7795979120418821e-02 -2.0173509544249922e-02 0.0000000000000000e+00  -1.3738087993280985e-02 -2.3504572284486928e-02 0.0000000000000000e+00  -8.7720715129456592e-03 -2.5878062046336556e-02 0.0000000000000000e+00  -3.3202109502066660e-03 -2.4603088053379213e-02 0.0000000000000000e+00  0.0000000000000000e+00 0.0000000000000000e+00 0.0000000000000000e+00  0.0000000000000000e+00 0.0000000000000000e+00 0.0000000000000000e+00  -2.7596146188446102e-03 2.4332777591560734e-02 0.0000000000000000e+00  -7.3227102345336977e-03 2.5886143542064314e-02 0.0000000000000000e+00  -1.1663721685917399e-02 2.4360943416107915e-02 0.0000000000000000e+00  -1.5545783654186624e-02 2.2126518763709430e-02 0.0000000000000000e+00  -1.8890905959400281e-02 1.9432737870678285e-02 0.0000000000000000e+00  -2.1685328445471427e-02 1.6420278160047135e-02 0.0000000000000000e+00  -2.3954101386001649e-02 1.3193906404635381e-02 0.0000000000000000e+00  -2.5741611724934520e-02 9.8185598816781360e-03 0.0000000000000000e+00  -2.7093905234245538e-02 6.3201063891592940e-03 0.0000000000000000e+00  -2.8044159611591180e-02 2.6898960722067278e-03 0.0000000000000000e+00  -2.8598509744974656e-02 -1.1083359235147269e-03 0.0000000000000000e+00  -2.8724392521633300e-02 -5.1312086614198659e-03 0.0000000000000000e+00  -2.8334853500889129e-02 -9.4436002352973666e-03 0.0000000000000000e+00  -2.7256679721510350e-02 -1.4077330045691162e-02 0.0000000000000000e+00  -2.5235462547107162e-02 -1.8965844718561820e-02 0.0000000000000000e+00  -2.1988560631819767e-02 -2.3895697350044924e-02 0.0000000000000000e+00  -1.7284070942678992e-02 -2.8453871915371791e-02 0.0000000000000000e+00  -1.1174611492078247e-02 -3.1862883789663392e-02 0.0000000000000000e+00  -4.2504694837369990e-03 -3.0536902490612410e-02 0.0000000000000000e+00  0.0000000000000000e+00 0.0000000000000000e+00 0.0000000000000000e+00  0.0000000000000000e+00 0.0000000000000000e+00 0.0000000000000000e+00  -3.3354826602012993e-03 2.9099760072294128e-02 0.0000000000000000e+00  -8.7921998976200847e-03 3.0811313780492299e-02 0.0000000000000000e+00  -1.3888211063046517e-02 2.8815614399692633e-02 0.0000000000000000e+00  -1.8335786146267217e-02 2.5980300194309282e-02 0.0000000000000000e+00  -2.2064331997560135e-02 2.2655776340722810e-02 0.0000000000000000e+00  -2.5097684326050296e-02 1.9042438233694680e-02 0.0000000000000000e+00  -2.7510660189077860e-02 1.5276992040315501e-02 0.0000000000000000e+00  -2.9397608768880215e-02 1.1432940845590069e-02 0.0000000000000000e+00  -3.0849326632937213e-02 7.5272992638920769e-03 0.0000000000000000e+00  -3.1936504190065294e-02 3.5292531513098596e-03 0.0000000000000000e+00  -3.2697335627581148e-02 -6.3526965930517539e-04 0.0000000000000000e+00  -3.3130378480493064e-02 -5.0830430844059863e-03 0.0000000000000000e+00  -3.3136396933689583e-02 -9.9446417987114257e-03 0.0000000000000000e+00  -3.2485425864375500e-02 -1.5321572337780510e-02 0.0000000000000000e+00  -3.0863285865514796e-02 -2.1312989512561470e-02 0.0000000000000000e+00  -2.7713301073173813e-02 -2.7913226696999013e-02 0.0000000000000000e+00  -2.2376232688940598e-02 -3.4514959945724948e-02 0.0000000000000000e+00  -1.4670855815443893e-02 -3.9625080729516891e-02 0.0000000000000000e+00  -5.5707594984985157e-03 -3.8235904919831622e-02 0.0000000000000000e+00  0.0000000000000000e+00 0.0000000000000000e+00 0.0000000000000000e+00  0.0000000000000000e+00 0.0000000000000000e+00 0.0000000000000000e+00  -4.1271029996746396e-03 3.4898842583279827e-02 0.0000000000000000e+00  -1.0761581209377898e-02 3.6688240050224502e-02 0.0000000000000000e+00  -1.6788107912820035e-02 3.3989961728799832e-02 0.0000000000000000e+00  -2.1860089643719924e-02 3.0311641976453658e-02 0.0000000000000000e+00  -2.5941930816426387e-02 2.6156269194509620e-02 0.0000000000000000e+00  -2.9133505359850785