<?xml version="1.0"?>
<VTKFile type="UnstructuredGrid"  version="0.1"  >
<UnstructuredGrid>
<Piece  NumberOfPoints="441" NumberOfCells="800">
<Points>
<DataArray  type="Float64"  NumberOfComponents="3"  format="ascii">0 0 0  0.05 0 0  0.1 0 0  0.15 0 0  0.2 0 0  0.25 0 0  0.3 0 0  0.35 0 0  0.4 0 0  0.45 0 0  0.5 0 0  0.55 0 0  0.6 0 0  0.65 0 0  0.7 0 0  0.75 0 0  0.8 0 0  0.85 0 0  0.9 0 0  0.95 0 0  1 0 0  0 0.05 0  0.05 0.05 0  0.1 0.05 0  0.15 0.05 0  0.2 0.05 0  0.25 0.05 0  0.3 0.05 0  0.35 0.05 0  0.4 0.05 0  0.45 0.05 0  0.5 0.05 0  0.55 0.05 0  0.6 0.05 0  0.65 0.05 0  0.7 0.05 0  0.75 0.05 0  0.8 0.05 0  0.85 0.05 0  0.9 0.05 0  0.95 0.05 0  1 0.05 0  0 0.1 0  0.05 0.1 0  0.1 0.1 0  0.15 0.1 0  0.2 0.1 0  0.25 0.1 0  0.3 0.1 0  0.35 0.1 0  0.4 0.1 0  0.45 0.1 0  0.5 0.1 0  0.55 0.1 0  0.6 0.1 0  0.65 0.1 0  0.7 0.1 0  0.75 0.1 0  0.8 0.1 0  0.85 0.1 0  0.9 0.1 0  0.95 0.1 0  1 0.1 0  0 0.15 0  0.05 0.15 0  0.1 0.15 0  0.15 0.15 0  0.2 0.15 0  0.25 0.15 0  0.3 0.15 0  0.35 0.15 0  0.4 0.15 0  0.45 0.15 0  0.5 0.15 0  0.55 0.15 0  0.6 0.15 0  0.65 0.15 0  0.7 0.15 0  0.75 0.15 0  0.8 0.15 0  0.85 0.15 0  0.9 0.15 0  0.95 0.15 0  1 0.15 0  0 0.2 0  0.05 0.2 0  0.1 0.2 0  0.15 0.2 0  0.2 0.2 0  0.25 0.2 0  0.3 0.2 0  0.35 0.2 0  0.4 0.2 0  0.45 0.2 0  0.5 0.2 0  0.55 0.2 0  0.6 0.2 0  0.65 0.2 0  0.7 0.2 0  0.75 0.2 0  0.8 0.2 0  0.85 0.2 0  0.9 0.2 0  0.95 0.2 0  1 0.2 0  0 0.25 0  0.05 0.25 0  0.1 0.25 0  0.15 0.25 0  0.2 0.25 0  0.25 0.25 0  0.3 0.25 0  0.35 0.25 0  0.4 0.25 0  0.45 0.25 0  0.5 0.25 0  0.55 0.25 0  0.6 0.25 0  0.65 0.25 0  0.7 0.25 0  0.75 0.25 0  0.8 0.25 0  0.85 0.25 0  0.9 0.25 0  0.95 0.25 0  1 0.25 0  0 0.3 0  0.05 0.3 0  0.1 0.3 0  0.15 0.3 0  0.2 0.3 0  0.25 0.3 0  0.3 0.3 0  0.35 0.3 0  0.4 0.3 0  0.45 0.3 0  0.5 0.3 0  0.55 0.3 0  0.6 0.3 0  0.65 0.3 0  0.7 0.3 0  0.75 0.3 0  0.8 0.3 0  0.85 0.3 0  0.9 0.3 0  0.95 0.3 0  1 0.3 0  0 0.35 0  0.05 0.35 0  0.1 0.35 0  0.15 0.35 0  0.2 0.35 0  0.25 0.35 0  0.3 0.35 0  0.35 0.35 0  0.4 0.35 0  0.45 0.35 0  0.5 0.35 0  0.55 0.35 0  0.6 0.35 0  0.65 0.35 0  0.7 0.35 0  0.75 0.35 0  0.8 0.35 0  0.85 0.35 0  0.9 0.35 0  0.95 0.35 0  1 0.35 0  0 0.4 0  0.05 0.4 0  0.1 0.4 0  0.15 0.4 0  0.2 0.4 0  0.25 0.4 0  0.3 0.4 0  0.35 0.4 0  0.4 0.4 0  0.45 0.4 0  0.5 0.4 0  0.55 0.4 0  0.6 0.4 0  0.65 0.4 0  0.7 0.4 0  0.75 0.4 0  0.8 0.4 0  0.85 0.4 0  0.9 0.4 0  0.95 0.4 0  1 0.4 0  0 0.45 0  0.05 0.45 0  0.1 0.45 0  0.15 0.45 0  0.2 0.45 0  0.25 0.45 0  0.3 0.45 0  0.35 0.45 0  0.4 0.45 0  0.45 0.45 0  0.5 0.45 0  0.55 0.45 0  0.6 0.45 0  0.65 0.45 0  0.7 0.45 0  0.75 0.45 0  0.8 0.45 0  0.85 0.45 0  0.9 0.45 0  0.95 0.45 0  1 0.45 0  0 0.5 0  0.05 0.5 0  0.1 0.5 0  0.15 0.5 0  0.2 0.5 0  0.25 0.5 0  0.3 0.5 0  0.35 0.5 0  0.4 0.5 0  0.45 0.5 0  0.5 0.5 0  0.55 0.5 0  0.6 0.5 0  0.65 0.5 0  0.7 0.5 0  0.75 0.5 0  0.8 0.5 0  0.85 0.5 0  0.9 0.5 0  0.95 0.5 0  1 0.5 0  0 0.55 0  0.05 0.55 0  0.1 0.55 0  0.15 0.55 0  0.2 0.55 0  0.25 0.55 0  0.3 0.55 0  0.35 0.55 0  0.4 0.55 0  0.45 0.55 0  0.5 0.55 0  0.55 0.55 0  0.6 0.55 0  0.65 0.55 0  0.7 0.55 0  0.75 0.55 0  0.8 0.55 0  0.85 0.55 0  0.9 0.55 0  0.95 0.55 0  1 0.55 0  0 0.6 0  0.05 0.6 0  0.1 0.6 0  0.15 0.6 0  0.2 0.6 0  0.25 0.6 0  0.3 0.6 0  0.35 0.6 0  0.4 0.6 0  0.45 0.6 0  0.5 0.6 0  0.55 0.6 0  0.6 0.6 0  0.65 0.6 0  0.7 0.6 0  0.75 0.6 0  0.8 0.6 0  0.85 0.6 0  0.9 0.6 0  0.95 0.6 0  1 0.6 0  0 0.65 0  0.05 0.65 0  0.1 0.65 0  0.15 0.65 0  0.2 0.65 0  0.25 0.65 0  0.3 0.65 0  0.35 0.65 0  0.4 0.65 0  0.45 0.65 0  0.5 0.65 0  0.55 0.65 0  0.6 0.65 0  0.65 0.65 0  0.7 0.65 0  0.75 0.65 0  0.8 0.65 0  0.85 0.65 0  0.9 0.65 0  0.95 0.65 0  1 0.65 0  0 0.7 0  0.05 0.7 0  0.1 0.7 0  0.15 0.7 0  0.2 0.7 0  0.25 0.7 0  0.3 0.7 0  0.35 0.7 0  0.4 0.7 0  0.45 0.7 0  0.5 0.7 0  0.55 0.7 0  0.6 0.7 0  0.65 0.7 0  0.7 0.7 0  0.75 0.7 0  0.8 0.7 0  0.85 0.7 0  0.9 0.7 0  0.95 0.7 0  1 0.7 0  0 0.75 0  0.05 0.75 0  0.1 0.75 0  0.15 0.75 0  0.2 0.75 0  0.25 0.75 0  0.3 0.75 0  0.35 0.75 0  0.4 0.75 0  0.45 0.75 0  0.5 0.75 0  0.55 0.75 0  0.6 0.75 0  0.65 0.75 0  0.7 0.75 0  0.75 0.75 0  0.8 0.75 0  0.85 0.75 0  0.9 0.75 0  0.95 0.75 0  1 0.75 0  0 0.8 0  0.05 0.8 0  0.1 0.8 0  0.15 0.8 0  0.2 0.8 0  0.25 0.8 0  0.3 0.8 0  0.35 0.8 0  0.4 0.8 0  0.45 0.8 0  0.5 0.8 0  0.55 0.8 0  0.6 0.8 0  0.65 0.8 0  0.7 0.8 0  0.75 0.8 0  0.8 0.8 0  0.85 0.8 0  0.9 0.8 0  0.95 0.8 0  1 0.8 0  0 0.85 0  0.05 0.85 0  0.1 0.85 0  0.15 0.85 0  0.2 0.85 0  0.25 0.85 0  0.3 0.85 0  0.35 0.85 0  0.4 0.85 0  0.45 0.85 0  0.5 0.85 0  0.55 0.85 0  0.6 0.85 0  0.65 0.85 0  0.7 0.85 0  0.75 0.85 0  0.8 0.85 0  0.85 0.85 0  0.9 0.85 0  0.95 0.85 0  1 0.85 0  0 0.9 0  0.05 0.9 0  0.1 0.9 0  0.15 0.9 0  0.2 0.9 0  0.25 0.9 0  0.3 0.9 0  0.35 0.9 0  0.4 0.9 0  0.45 0.9 0  0.5 0.9 0  0.55 0.9 0  0.6 0.9 0  0.65 0.9 0  0.7 0.9 0  0.75 0.9 0  0.8 0.9 0  0.85 0.9 0  0.9 0.9 0  0.95 0.9 0  1 0.9 0  0 0.95 0  0.05 0.95 0  0.1 0.95 0  0.15 0.95 0  0.2 0.95 0  0.25 0.95 0  0.3 0.95 0  0.35 0.95 0  0.4 0.95 0  0.45 0.95 0  0.5 0.95 0  0.55 0.95 0  0.6 0.95 0  0.65 0.95 0  0.7 0.95 0  0.75 0.95 0  0.8 0.95 0  0.85 0.95 0  0.9 0.95 0  0.95 0.95 0  1 0.95 0  0 1 0  0.05 1 0  0.1 1 0  0.15 1 0  0.2 1 0  0.25 1 0  0.3 1 0  0.35 1 0  0.4 1 0  0.45 1 0  0.5 1 0  0.55 1 0  0.6 1 0  0.65 1 0  0.7 1 0  0.75 1 0  0.8 1 0  0.85 1 0  0.9 1 0  0.95 1 0  1 1 0  </DataArray>
</Points>
<Cells>
[...]
<PointData  Vectors="f_137"> 
<DataArray  type="Float64"  Name="f_137"  NumberOfComponents="3" format="ascii">0.0000000000000000e+00 0.0000000000000000e+00 0.0000000000000000e+00  0.0000000000000000e+00 0.0000000000000000e+00 0.0000000000000000e+00  0.0000000000000000e+00 0.0000000000000000e+00 0.0000000000000000e+00  0.0000000000000000e+00 0.0000000000000000e+00 0.0000000000000000e+00  0.0000000000000000e+00 0.0000000000000000e+00 0.0000000000000000e+00  0.0000000000000000e+00 0.0000000000000000e+00 0.0000000000000000e+00  0.0000000000000000e+00 0.0000000000000000e+00 0.0000000000000000e+00  0.0000000000000000e+00 0.0000000000000000e+00 0.0000000000000000e+00  0.0000000000000000e+00 0.0000000000000000e+00 0.0000000000000000e+00  0.0000000000000000e+00 0.0000000000000000e+00 0.0000000000000000e+00  0.0000000000000000e+00 0.0000000000000000e+00 0.0000000000000000e+00  0.0000000000000000e+00 0.0000000000000000e+00 0.0000000000000000e+00  0.0000000000000000e+00 0.0000000000000000e+00 0.0000000000000000e+00  0.0000000000000000e+00 0.0000000000000000e+00 0.0000000000000000e+00  0.0000000000000000e+00 0.0000000000000000e+00 0.0000000000000000e+00  0.0000000000000000e+00 0.0000000000000000e+00 0.0000000000000000e+00  0.0000000000000000e+00 0.0000000000000000e+00 0.0000000000000000e+00  0.0000000000000000e+00 0.0000000000000000e+00 0.0000000000000000e+00  0.0000000000000000e+00 0.0000000000000000e+00 0.0000000000000000e+00  0.0000000000000000e+00 0.0000000000000000e+00 0.0000000000000000e+00  0.0000000000000000e+00 0.0000000000000000e+00 0.0000000000000000e+00  0.0000000000000000e+00 0.0000000000000000e+00 0.0000000000000000e+00  -8.3294992730491573e-04 8.2507116829604976e-04 0.0000000000000000e+00  -2.2636217527657199e-03 9.1161935433007821e-04 0.0000000000000000e+00  -3.6859757562578196e-03 8.6386523185587674e-04 0.0000000000000000e+00  -5.0134126026784281e-03 7.9630469855675884e-04 0.0000000000000000e+00  -6.2154576185434523e-03 7.0867272423586457e-04 0.0000000000000000e+00  -7.2605642017327717e-03 6.0285891153970435e-04 0.0000000000000000e+00  -8.1217728023198679e-03 4.8093268855547208e-04 0.0000000000000000e+00  -8.7758057916037455e-03 3.4522754513403257e-04 0.0000000000000000e+00  -9.2035736645776894e-03 1.9836637285484607e-04 0.0000000000000000e+00  -9.3905734406485638e-03 4.3291157448512449e-05 0.0000000000000000e+00  -9.3273532842153197e-03 -1.1665735220544773e-04 0.0000000000000000e+00  -9.0101044596896784e-03 -2.7765366164073617e-04 0.0000000000000000e+00  -8.4413613958763591e-03 -4.3533126939483533e-04 0.0000000000000000e+00  -7.6307667801579311e-03 -5.8480508297151788e-04 0.0000000000000000e+00  -6.5956635376932223e-03 -7.2078726379638163e-04 0.0000000000000000e+00  -5.3616010219129139e-03 -8.3789856824706031e-04 0.0000000000000000e+00  -3.9618875897538403e-03 -9.3069482120139142e-04 0.0000000000000000e+00  -2.4433787710259969e-03 -9.8581976369727163e-04 0.0000000000000000e+00  -8.8898766786356322e-04 -8.8810797690703667e-04 0.0000000000000000e+00  0.0000000000000000e+00 0.0000000000000000e+00 0.0000000000000000e+00  0.0000000000000000e+00 0.0000000000000000e+00 0.0000000000000000e+00  -9.7260220106810545e-04 2.2899186239345409e-03 0.0000000000000000e+00  -2.6055541239886361e-03 2.4931938847237308e-03 0.0000000000000000e+00  -4.2176213146703952e-03 2.3723700080004895e-03 0.0000000000000000e+00  -5.7259928366336582e-03 2.1842578253033441e-03 0.0000000000000000e+00  -7.0895754295396260e-03 1.9408649145895799e-03 0.0000000000000000e+00  -8.2737143273763601e-03 1.6479937335470277e-03 0.0000000000000000e+00  -9.2482428127037032e-03 1.3117275252687139e-03 0.0000000000000000e+00  -9.9873991667126169e-03 9.3884440979591366e-04 0.0000000000000000e+00  -1.0470246594060286e-02 5.3672827675787344e-04 0.0000000000000000e+00  -1.0680924836999695e-02 1.1347081492151496e-04 0.0000000000000000e+00  -1.0609060355818017e-02 -3.2191792529100074e-04 0.0000000000000000e+00  -1.0250356721774470e-02 -7.5926234149037116e-04 0.0000000000000000e+00  -9.6073757898867546e-03 -1.1870363044221830e-03 0.0000000000000000e+00  -8.6904684605287139e-03 -1.5923602907683603e-03 0.0000000000000000e+00  -7.5185281657387327e-03 -1.9612915794286943e-03 0.0000000000000000e+00  -6.1201760613186253e-03 -2.2794027688651138e-03 0.0000000000000000e+00  -4.5324403990502317e-03 -2.5321516427018482e-03 0.0000000000000000e+00  -2.8074162033202245e-03 -2.6884635436664060e-03 0.0000000000000000e+00  -1.0455626277019550e-03 -2.4816316203969792e-03 0.0000000000000000e+00  0.0000000000000000e+00 0.0000000000000000e+00 0.0000000000000000e+00  0.0000000000000000e+00 0.0000000000000000e+00 0.0000000000000000e+00  -1.0198386195649210e-03 3.8647279882046285e-03 0.0000000000000000e+00  -2.7454173384434113e-03 4.1840730846271334e-03 0.0000000000000000e+00  -4.4470837082390725e-03 3.9815980467162700e-03 0.0000000000000000e+00  -6.0396839477032055e-03 3.6641986053489030e-03 0.0000000000000000e+00  -7.4796930993696565e-03 3.2541840419534796e-03 0.0000000000000000e+00  -8.7316512417336366e-03 2.7616163108176847e-03 0.0000000000000000e+00  -9.7642301659790695e-03 2.1971817582691270e-03 0.0000000000000000e+00  -1.0550881853527830e-02 1.5723675044181974e-03 0.0000000000000000e+00  -1.1069830350645909e-02 8.9943007092826760e-04 0.0000000000000000e+00  -1.1304171939564000e-02 1.9159827147391495e-04 0.0000000000000000e+00  -1.1242166269654024e-02 -5.3652012415074304e-04 0.0000000000000000e+00  -1.0877821205574970e-02 -1.2684279457238082e-03 0.0000000000000000e+00  -1.0211825547861422e-02 -1.9853021281868426e-03 0.0000000000000000e+00  -9.2528068031832427e-03 -2.6658524874639709e-03 0.0000000000000000e+00  -8.0185634805038982e-03 -3.2866834357841673e-03 0.0000000000000000e+00  -6.5377777057724126e-03 -3.8232338290522896e-03 0.0000000000000000e+00  -4.8487990882924957e-03 -4.2502684193560410e-03 0.0000000000000000e+00  -3.0076654759569545e-03 -4.5194598346368076e-03 0.0000000000000000e+00  -1.1210142620155586e-03 -4.1901932808922383e-03 0.0000000000000000e+00  0.0000000000000000e+00 0.0000000000000000e+00 0.0000000000000000e+00  0.0000000000000000e+00 0.0000000000000000e+00 0.0000000000000000e+00  -1.0948405774504925e-03 5.5357158518907863e-03 0.0000000000000000e+00  -2.9475564368413617e-03 5.9839169902090004e-03 0.0000000000000000e+00  -4.7747901867712045e-03 5.6949151306750975e-03 0.0000000000000000e+00  -6.4843756796567932e-03 5.2402297264420791e-03 0.0000000000000000e+00  -8.0303285030149558e-03 4.6537403887289726e-03 0.0000000000000000e+00  -9.3757353057930311e-03 3.9505097032909000e-03 0.0000000000000000e+00  -1.0488208118080822e-02 3.1460692735849438e-03 0.0000000000000000e+00  -1.1340466369768541e-02 2.2566786650727783e-03 0.0000000000000000e+00  -1.1909893855049083e-02 1.2992814566255559e-03 0.0000000000000000e+00  -1.2178335874083587e-02 2.9182803830888520e-04 0.0000000000000000e+00  -1.2132139326837097e-02 -7.4600524916522632e-04 0.0000000000000000e+00  -1.1762675824692054e-02 -1.7918622298316036e-03 0.0000000000000000e+00  -1.1067472511203554e-02 -2.8197912424920354e-03 0.0000000000000000e+00  -1.0051984039799754e-02 -3.7997315278025042e-03 0.0000000000000000e+00  -8.7315761713388160e-03 -4.6977853681943226e-03 0.0000000000000000e+00  -7.1342970299656154e-03 -5.4774760210152861e-03 0.0000000000000000e+00  -5.3001334145067729e-03 -6.1008599782231806e-03 0.0000000000000000e+00  -3.2909410621834198e-03 -6.4987680973049404e-03 0.0000000000000000e+00  -1.2263145712649620e-03 -6.0405186855086107e-03 0.0000000000000000e+00  0.0000000000000000e+00 0.0000000000000000e+00 0.0000000000000000e+00  0.0000000000000000e+00 0.0000000000000000e+00 0.0000000000000000e+00  -1.1981846733742185e-03 7.3490321669626617e-03 0.0000000000000000e+00  -3.2253806966572474e-03 7.9354347900895267e-03 0.0000000000000000e+00  -5.2238625588511937e-03 7.5512085321995407e-03 0.0000000000000000e+00  -7.0921148769361748e-03 6.9470143415940695e-03 0.0000000000000000e+00  -8.7810511964518129e-03 6.1697794334600996e-03 0.0000000000000000e+00  -1.0251865872238175e-02 5.2403327315539211e-03 0.0000000000000000e+00  -1.1471266018680898e-02 4.1795913535942761e-03 0.0000000000000000e+00  -1.2411527199474016e-02 3.0087395552946756e-03 0.0000000000000000e+00  -1.3049472315824429e-02 1.7490759041057131e-03 0.0000000000000000e+00  -1.3365690627632754e-02 4.2252462441060555e-04 0.0000000000000000e+00  -1.3344116700127280e-02 -9.4716853889752217e-04 0.0000000000000000e+00  -1.2972351975875753e-02 -2.3327655830832606e-03 0.0000000000000000e+00  -1.2242987477801800e-02 -3.7017694785519547e-03 0.0000000000000000e+00  -1.1156088317826714e-02 -5.0151219430199841e-03 0.0000000000000000e+00  -9.7223718452404042e-03 -6.2270334015829326e-03 0.0000000000000000e+00  -7.9677576686283322e-03 -7.2864552865320054e-03 0.0000000000000000e+00  -5.9337290655603250e-03 -8.1389276099827160e-03 0.0000000000000000e+00  -3.6904226656294739e-03 -8.6890468963174896e-03 0.0000000000000000e+00  -1.3756789445902747e-03 -8.0918409397250039e-03 0.0000000000000000e+00  0.0000000000000000e+00 0.0000000000000000e+00 0.0000000000000000e+00  0.0000000000000000e+00 0.0000000000000000e+00 0.0000000000000000e+00  -1.3332205050301275e-03 9.3509877963085207e-03 0.0000000000000000e+00  -3.5878404667577619e-03 1.0088109273535550e-02 0.0000000000000000e+00  -5.8077918125836710e-03 9.5968547222006224e-03 0.0000000000000000e+00  -7.8798551795010493e-03 8.8261149736615328e-03 0.0000000000000000e+00  -9.7508865167140503e-03 7.8383532771674220e-03 0.0000000000000000e+00  -1.1380158638270509e-02 6.6616943472108591e-03 0.0000000000000000e+00  -1.2734065166599157e-02 5.3234158750739688e-03 0.0000000000000000e+00  -1.3785341044566225e-02 3.8498776396682748e-03 0.0000000000000000e+00  -1.4511123473097721e-02 2.2662138405082711e-03 0.0000000000000000e+00  -1.4891218977648954e-02 5.9709426823499091e-04 0.0000000000000000e+00  -1.4906875799076518e-02 -1.1313971870233776e-03 0.0000000000000000e+00  -1.4540619520146509e-02 -2.8889971564904551e-03 0.0000000000000000e+00  -1.3777637256126908e-02 -4.6380822136617532e-03 0.0000000000000000e+00  -1.2609137297730286e-02 -6.3308666739592002e-03 0.0000000000000000e+00  -1.1037294250731532e-02 -7.9080782002808551e-03 0.0000000000000000e+00  -9.0827161026188954e-03 -9.3002199332934011e-03 0.0000000000000000e+00  -6.7870960818831021e-03 -1.0430330714292250e-02 0.0000000000000000e+00  -4.2311177163657527e-03 -1.1168242368154332e-02 0.0000000000000000e+00  -1.5787107148769219e-03 -1.0420348765705191e-02 0.0000000000000000e+00  0.0000000000000000e+00 0.0000000000000000e+00 0.0000000000000000e+00  0.0000000000000000e+00 0.0000000000000000e+00 0.0000000000000000e+00  -1.5046915500322587e-03 1.1595414705862025e-02 0.0000000000000000e+00  -4.0470568066145749e-03 1.2497699249636163e-02 0.0000000000000000e+00  -6.5448165509306372e-03 1.1882136831673433e-02 0.0000000000000000e+00  -8.8697783735190178e-03 1.0920952781987859e-02 0.0000000000000000e+00  -1.0963839707379510e-02 9.6958139565457794e-03 0.0000000000000000e+00  -1.2784835509018622e-02 8.2445259896976250e-03 0.0000000000000000e+00  -1.4300222680373858e-02 6.6022753472306812e-03 0.0000000000000000e+00  -1.5485063338586147e-02 4.8010414034981297e-03 0.0000000000000000e+00  -1.6318654226829057e-02 2.8690292119343819e-03 0.0000000000000000e+00  -1.6781327412251423e-02 8.3173952680963786e-04 0.0000000000000000e+00  -1.6851891792520810e-02 -1.2852418841569407e-03 0.0000000000000000e+00  -1.6506477346337756e-02 -3.4519342513894572e-03 0.0000000000000000e+00  -1.5719577375793558e-02 -5.6285901114490411e-03 0.0000000000000000e+00  -1.4468232930530065e-02 -7.7602203713099047e-03 0.0000000000000000e+00  -1.2739389499244217e-02 -9.7727227190352352e-03 0.0000000000000000e+00  -1.0542067174088489e-02 -1.1572877293531611e-02 0.0000000000000000e+00  -7.9144767799100100e-03 -1.3051963331847154e-02 0.0000000000000000e+00  -4.9500080680851041e-03 -1.4031464396785856e-02 0.0000000000000000e+00  -1.8497132397489748e-03 -1.3120834680940894e-02 0.0000000000000000e+00  0.0000000000000000e+00 0.0000000000000000e+00 0.0000000000000000e+00  0.0000000000000000e+00 0.0000000000000000e+00 0.0000000000000000e+00  -1.7195773587331527e-03 1.4144999359607099e-02 0.0000000000000000e+00  -4.6206820394809256e-03 1.5228002751854064e-02 0.0000000000000000e+00  -7.4607236730540993e-03 1.4463159102429193e-02 0.0000000000000000e+00  -1.0092328599074383e-02 1.3278071285934400e-02 0.0000000000000000e+00  -1.2451654543187763e-02 1.1779194719267172e-02 0.0000000000000000e+00  -1.4496367824820297e-02 1.0017825789867017e-02 0.0000000000000000e+00  -1.6197633990446263e-02 8.0394948421928757e-03 0.0000000000000000e+00  -1.7536180467038923e-02 5.8825301890902135e-03 0.0000000000000000e+00  -1.8496795085796183e-02 3.5771372195728601e-03 0.0000000000000000e+00  -1.9062996871731769e-02 1.1468362740005226e-03 0.0000000000000000e+00  -1.9212459856434782e-02 -1.3876682471971656e-03 0.0000000000000000e+00  -1.8914040003835592e-02 -4.0022313394599621e-03 0.0000000000000000e+00  -1.8127489637053591e-02 -6.6607251972206020e-03 0.0000000000000000e+00  -1.6807889127025740e-02 -9.3050960901685745e-03 0.0000000000000000e+00  -1.4915864312616109e-02 -1.1846540128510948e-02 0.0000000000000000e+00  -1.2436960829573098e-02 -1.4161739886513208e-02 0.0000000000000000e+00  -9.3971590222298972e-03 -1.6095993165646211e-02 0.0000000000000000e+00  -5.9035246497202232e-03 -1.7399911601687912e-02 0.0000000000000000e+00  -2.2105687240689021e-03 -1.6316196538438556e-02 0.0000000000000000e+00  0.0000000000000000e+00 0.0000000000000000e+00 0.0000000000000000e+00  0.0000000000000000e+00 0.0000000000000000e+00 0.0000000000000000e+00  -1.9883776001248677e-03 1.7075648231364211e-02 0.0000000000000000e+00  -5.3346545561299297e-03 1.8354376245607453e-02 0.0000000000000000e+00  -8.5924856580085283e-03 1.7403355244484688e-02 0.0000000000000000e+00  -1.1589804329222433e-02 1.5946709652627431e-02 0.0000000000000000e+00  -1.4256563163303631e-02 1.4124316791009475e-02 0.0000000000000000e+00  -1.6552938913531913e-02 1.2006889104230862e-02 0.0000000000000000e+00  -1.8458448719264404e-02 9.6539549823056875e-03 0.0000000000000000e+00  -1.9964988606489670e-02 7.1112849696902628e-03 0.0000000000000000e+00  -2.1068293361223962e-02 4.4096524735765859e-03 0.0000000000000000e+00  -2.1759786231175898e-02 1.5667099323910185e-03 0.0000000000000000e+00  -2.2019251711694762e-02 -1.4080757781412434e-03 0.0000000000000000e+00  -2.1808668071782496e-02 -4.5049822260954716e-03 0.0000000000000000e+00  -2.1068874738303715e-02 -7.7014305612345714e-03 0.0000000000000000e+00  -1.9722846085731792e-02 -1.0945852952079805e-02 0.0000000000000000e+00  -1.7687282417356079e-02 -1.4140063415243827e-02 0.0000000000000000e+00  -1.4901601237938104e-02 -1.7124497921628918e-02 0.0000000000000000e+00  -1.1359604816806774e-02 -1.9675448579945246e-02 0.0000000000000000e+00  -7.1796373374869256e-03 -2.1433610092074666e-02 0.0000000000000000e+00  -2.6953647458525542e-03 -2.0172236841642516e-02 0.0000000000000000e+00  0.0000000000000000e+00 0.0000000000000000e+00 0.0000000000000000e+00  0.0000000000000000e+00 0.0000000000000000e+00 0.0000000000000000e+00  -2.3273003444035417e-03 2.0483069671286450e-02 0.0000000000000000e+00  -6.2280242816836048e-03 2.1968552884391392e-02 0.0000000000000000e+00  -9.9942522500440830e-03 2.0775444407077039e-02 0.0000000000000000e+00  -1.3421949768315086e-02 1.8977954988398139e-02 0.0000000000000000e+00  -1.6435369966548111e-02 1.6762795833387186e-02 0.0000000000000000e+00  -1.9002459350463255e-02 1.4229097181930949e-02 0.0000000000000000e+00  -2.1118884474978249e-02 1.1455541002128694e-02 0.0000000000000000e+00  -2.2796263544771905e-02 8.4967184008203182e-03 0.0000000000000000e+00  -2.4049544717738999e-02 5.3820358587018616e-03 0.0000000000000000e+00  -2.4885627994409854e-02 2.1182548909827823e-03 0.0000000000000000e+00  -2.5292450462502020e-02 -1.3045267552309308e-03 0.0000000000000000e+00  -2.5228221898120112e-02 -4.9026394350677677e-03 0.0000000000000000e+00  -2.4614153814418751e-02 -8.6841556236787916e-03 0.0000000000000000e+00  -2.3330444643991654e-02 -1.2626015961669476e-02 0.0000000000000000e+00  -2.1220809622208004e-02 -1.6636179804853140e-02 0.0000000000000000e+00  -1.8135813640720651e-02 -2.0511513849045648e-02 0.0000000000000000e+00  -1.3996251117026341e-02 -2.3924811311773070e-02 0.0000000000000000e+00  -8.9210355936457930e-03 -2.6347034238973385e-02 0.0000000000000000e+00  -3.3620646131832729e-03 -2.4925902762883832e-02 0.0000000000000000e+00  0.0000000000000000e+00 0.0000000000000000e+00 0.0000000000000000e+00  0.0000000000000000e+00 0.0000000000000000e+00 0.0000000000000000e+00  -2.7622684998130590e-03 2.4493516021019228e-02 0.0000000000000000e+00  -7.3613838084014994e-03 2.6185963509452882e-02 0.0000000000000000e+00  -1.1747319332400568e-02 2.4663649866661894e-02 0.0000000000000000e+00  -1.5674784897844959e-02 2.2422302517827012e-02 0.0000000000000000e+00  -1.9065505592509836e-02 1.9716487558260762e-02 0.0000000000000000e+00  -2.1905340457918174e-02 1.6686937692026785e-02 0.0000000000000000e+00  -2.4218912431599137e-02 1.3437978751129211e-02 0.0000000000000000e+00  -2.6050192104803811e-02 1.0034062220995390e-02 0.0000000000000000e+00  -2.7444898183000034e-02 6.5004053381589365e-03 0.0000000000000000e+00  -2.8435963517161773e-02 2.8273121412547828e-03 0.0000000000000000e+00  -2.9028769499314037e-02 -1.0230517940835045e-03 0.0000000000000000e+00  -2.9189365702756244e-02 -5.1099129561244620e-03 0.0000000000000000e+00  -2.8828544588910269e-02 -9.5028884280040533e-03 0.0000000000000000e+00  -2.7765502990125562e-02 -1.4237927980081031e-02 0.0000000000000000e+00  -2.5733755589465637e-02 -1.9245638946617499e-02 0.0000000000000000e+00  -2.2436601775312783e-02 -2.4302479374914358e-02 0.0000000000000000e+00  -1.7632515431215450e-02 -2.8978148881575995e-02 0.0000000000000000e+00  -1.1378621633267251e-02 -3.2464329589445604e-02 0.0000000000000000e+00  -4.3094105507113269e-03 -3.0961408845518078e-02 0.0000000000000000e+00  0.0000000000000000e+00 0.0000000000000000e+00 0.0000000000000000e+00  0.0000000000000000e+00 0.0000000000000000e+00 0.0000000000000000e+00  -3.3365316750132205e-03 2.9281833232972239e-02 0.0000000000000000e+00  -8.8319867433132755e-03 3.1156808473980720e-02 0.0000000000000000e+00  -1.3976934061510233e-02 2.9165549610709995e-02 0.0000000000000000e+00  -1.8474339739364302e-02 2.6323944840657997e-02 0.0000000000000000e+00  -2.2253459750407243e-02 2.2987670711680907e-02 0.0000000000000000e+00  -2.5337719479366048e-02 1.9357093781209506e-02 0.0000000000000000e+00  -2.7801428073813635e-02 1.5568463290295811e-02 0.0000000000000000e+00  -2.9738531705306180e-02 1.1694925295358361e-02 0.0000000000000000e+00  -3.1239807753686417e-02 7.7530611487209604e-03 0.0000000000000000e+00  -3.2376170616060879e-02 3.7112735833210240e-03 0.0000000000000000e+00  -3.3185988730896739e-02 -5.0639051339492424e-04 0.0000000000000000e+00  -3.3670020809669056e-02 -5.0218754794031199e-03 0.0000000000000000e+00  -3.3726540806000585e-02 -9.9707945474685495e-03 0.0000000000000000e+00  -3.3112515393845951e-02 -1.5455843184798354e-02 0.0000000000000000e+00  -3.1505870669726474e-02 -2.1583822159443183e-02 0.0000000000000000e+00  -2.8322482205659024e-02 -2.8368882710058097e-02 0.0000000000000000e+00  -2.2871146042543380e-02 -3.5176537838241581e-02 0.0000000000000000e+00  -1.4961848594536533e-02 -4.0432981059736833e-02 0.0000000000000000e+00  -5.6531846869591756e-03 -3.8816125546706229e-02 0.0000000000000000e+00  0.0000000000000000e+00 0.0000000000000000e+00 0.0000000000000000e+00  0.0000000000000000e+00 0.0000000000000000e+00 0.0000000000000000e+00  -4.1259227202179128e-03 3.5102661731241387e-02 0.0000000000000000e+00  -1.0801692537231527e-02 3.7083071350493664e-02 0.0000000000000000e+00  -1.6881069474570180e-02 3.4391280759271531e-02 0.0000000000000000e+00  -2.2007427991496315e-02 3.0707963003881095e-02 0.0000000000000000e+00  -2.6145222790975350e-02 2.6541782955269263e-02 0.0000000000000000e+00  -2.9393743409135011