<?xml version="1.0"?>
<VTKFile type="UnstructuredGrid"  version="0.1"  >
<UnstructuredGrid>
<Piece  NumberOfPoints="441" NumberOfCells="800">
<Points>
<DataArray  type="Float64"  NumberOfComponents="3"  format="ascii">0 0 0  0.05 0 0  0.1 0 0  0.15 0 0  0.2 0 0  0.25 0 0  0.3 0 0  0.35 0 0  0.4 0 0  0.45 0 0  0.5 0 0  0.55 0 0  0.6 0 0  0.65 0 0  0.7 0 0  0.75 0 0  0.8 0 0  0.85 0 0  0.9 0 0  0.95 0 0  1 0 0  0 0.05 0  0.05 0.05 0  0.1 0.05 0  0.15 0.05 0  0.2 0.05 0  0.25 0.05 0  0.3 0.05 0  0.35 0.05 0  0.4 0.05 0  0.45 0.05 0  0.5 0.05 0  0.55 0.05 0  0.6 0.05 0  0.65 0.05 0  0.7 0.05 0  0.75 0.05 0  0.8 0.05 0  0.85 0.05 0  0.9 0.05 0  0.95 0.05 0  1 0.05 0  0 0.1 0  0.05 0.1 0  0.1 0.1 0  0.15 0.1 0  0.2 0.1 0  0.25 0.1 0  0.3 0.1 0  0.35 0.1 0  0.4 0.1 0  0.45 0.1 0  0.5 0.1 0  0.55 0.1 0  0.6 0.1 0  0.65 0.1 0  0.7 0.1 0  0.75 0.1 0  0.8 0.1 0  0.85 0.1 0  0.9 0.1 0  0.95 0.1 0  1 0.1 0  0 0.15 0  0.05 0.15 0  0.1 0.15 0  0.15 0.15 0  0.2 0.15 0  0.25 0.15 0  0.3 0.15 0  0.35 0.15 0  0.4 0.15 0  0.45 0.15 0  0.5 0.15 0  0.55 0.15 0  0.6 0.15 0  0.65 0.15 0  0.7 0.15 0  0.75 0.15 0  0.8 0.15 0  0.85 0.15 0  0.9 0.15 0  0.95 0.15 0  1 0.15 0  0 0.2 0  0.05 0.2 0  0.1 0.2 0  0.15 0.2 0  0.2 0.2 0  0.25 0.2 0  0.3 0.2 0  0.35 0.2 0  0.4 0.2 0  0.45 0.2 0  0.5 0.2 0  0.55 0.2 0  0.6 0.2 0  0.65 0.2 0  0.7 0.2 0  0.75 0.2 0  0.8 0.2 0  0.85 0.2 0  0.9 0.2 0  0.95 0.2 0  1 0.2 0  0 0.25 0  0.05 0.25 0  0.1 0.25 0  0.15 0.25 0  0.2 0.25 0  0.25 0.25 0  0.3 0.25 0  0.35 0.25 0  0.4 0.25 0  0.45 0.25 0  0.5 0.25 0  0.55 0.25 0  0.6 0.25 0  0.65 0.25 0  0.7 0.25 0  0.75 0.25 0  0.8 0.25 0  0.85 0.25 0  0.9 0.25 0  0.95 0.25 0  1 0.25 0  0 0.3 0  0.05 0.3 0  0.1 0.3 0  0.15 0.3 0  0.2 0.3 0  0.25 0.3 0  0.3 0.3 0  0.35 0.3 0  0.4 0.3 0  0.45 0.3 0  0.5 0.3 0  0.55 0.3 0  0.6 0.3 0  0.65 0.3 0  0.7 0.3 0  0.75 0.3 0  0.8 0.3 0  0.85 0.3 0  0.9 0.3 0  0.95 0.3 0  1 0.3 0  0 0.35 0  0.05 0.35 0  0.1 0.35 0  0.15 0.35 0  0.2 0.35 0  0.25 0.35 0  0.3 0.35 0  0.35 0.35 0  0.4 0.35 0  0.45 0.35 0  0.5 0.35 0  0.55 0.35 0  0.6 0.35 0  0.65 0.35 0  0.7 0.35 0  0.75 0.35 0  0.8 0.35 0  0.85 0.35 0  0.9 0.35 0  0.95 0.35 0  1 0.35 0  0 0.4 0  0.05 0.4 0  0.1 0.4 0  0.15 0.4 0  0.2 0.4 0  0.25 0.4 0  0.3 0.4 0  0.35 0.4 0  0.4 0.4 0  0.45 0.4 0  0.5 0.4 0  0.55 0.4 0  0.6 0.4 0  0.65 0.4 0  0.7 0.4 0  0.75 0.4 0  0.8 0.4 0  0.85 0.4 0  0.9 0.4 0  0.95 0.4 0  1 0.4 0  0 0.45 0  0.05 0.45 0  0.1 0.45 0  0.15 0.45 0  0.2 0.45 0  0.25 0.45 0  0.3 0.45 0  0.35 0.45 0  0.4 0.45 0  0.45 0.45 0  0.5 0.45 0  0.55 0.45 0  0.6 0.45 0  0.65 0.45 0  0.7 0.45 0  0.75 0.45 0  0.8 0.45 0  0.85 0.45 0  0.9 0.45 0  0.95 0.45 0  1 0.45 0  0 0.5 0  0.05 0.5 0  0.1 0.5 0  0.15 0.5 0  0.2 0.5 0  0.25 0.5 0  0.3 0.5 0  0.35 0.5 0  0.4 0.5 0  0.45 0.5 0  0.5 0.5 0  0.55 0.5 0  0.6 0.5 0  0.65 0.5 0  0.7 0.5 0  0.75 0.5 0  0.8 0.5 0  0.85 0.5 0  0.9 0.5 0  0.95 0.5 0  1 0.5 0  0 0.55 0  0.05 0.55 0  0.1 0.55 0  0.15 0.55 0  0.2 0.55 0  0.25 0.55 0  0.3 0.55 0  0.35 0.55 0  0.4 0.55 0  0.45 0.55 0  0.5 0.55 0  0.55 0.55 0  0.6 0.55 0  0.65 0.55 0  0.7 0.55 0  0.75 0.55 0  0.8 0.55 0  0.85 0.55 0  0.9 0.55 0  0.95 0.55 0  1 0.55 0  0 0.6 0  0.05 0.6 0  0.1 0.6 0  0.15 0.6 0  0.2 0.6 0  0.25 0.6 0  0.3 0.6 0  0.35 0.6 0  0.4 0.6 0  0.45 0.6 0  0.5 0.6 0  0.55 0.6 0  0.6 0.6 0  0.65 0.6 0  0.7 0.6 0  0.75 0.6 0  0.8 0.6 0  0.85 0.6 0  0.9 0.6 0  0.95 0.6 0  1 0.6 0  0 0.65 0  0.05 0.65 0  0.1 0.65 0  0.15 0.65 0  0.2 0.65 0  0.25 0.65 0  0.3 0.65 0  0.35 0.65 0  0.4 0.65 0  0.45 0.65 0  0.5 0.65 0  0.55 0.65 0  0.6 0.65 0  0.65 0.65 0  0.7 0.65 0  0.75 0.65 0  0.8 0.65 0  0.85 0.65 0  0.9 0.65 0  0.95 0.65 0  1 0.65 0  0 0.7 0  0.05 0.7 0  0.1 0.7 0  0.15 0.7 0  0.2 0.7 0  0.25 0.7 0  0.3 0.7 0  0.35 0.7 0  0.4 0.7 0  0.45 0.7 0  0.5 0.7 0  0.55 0.7 0  0.6 0.7 0  0.65 0.7 0  0.7 0.7 0  0.75 0.7 0  0.8 0.7 0  0.85 0.7 0  0.9 0.7 0  0.95 0.7 0  1 0.7 0  0 0.75 0  0.05 0.75 0  0.1 0.75 0  0.15 0.75 0  0.2 0.75 0  0.25 0.75 0  0.3 0.75 0  0.35 0.75 0  0.4 0.75 0  0.45 0.75 0  0.5 0.75 0  0.55 0.75 0  0.6 0.75 0  0.65 0.75 0  0.7 0.75 0  0.75 0.75 0  0.8 0.75 0  0.85 0.75 0  0.9 0.75 0  0.95 0.75 0  1 0.75 0  0 0.8 0  0.05 0.8 0  0.1 0.8 0  0.15 0.8 0  0.2 0.8 0  0.25 0.8 0  0.3 0.8 0  0.35 0.8 0  0.4 0.8 0  0.45 0.8 0  0.5 0.8 0  0.55 0.8 0  0.6 0.8 0  0.65 0.8 0  0.7 0.8 0  0.75 0.8 0  0.8 0.8 0  0.85 0.8 0  0.9 0.8 0  0.95 0.8 0  1 0.8 0  0 0.85 0  0.05 0.85 0  0.1 0.85 0  0.15 0.85 0  0.2 0.85 0  0.25 0.85 0  0.3 0.85 0  0.35 0.85 0  0.4 0.85 0  0.45 0.85 0  0.5 0.85 0  0.55 0.85 0  0.6 0.85 0  0.65 0.85 0  0.7 0.85 0  0.75 0.85 0  0.8 0.85 0  0.85 0.85 0  0.9 0.85 0  0.95 0.85 0  1 0.85 0  0 0.9 0  0.05 0.9 0  0.1 0.9 0  0.15 0.9 0  0.2 0.9 0  0.25 0.9 0  0.3 0.9 0  0.35 0.9 0  0.4 0.9 0  0.45 0.9 0  0.5 0.9 0  0.55 0.9 0  0.6 0.9 0  0.65 0.9 0  0.7 0.9 0  0.75 0.9 0  0.8 0.9 0  0.85 0.9 0  0.9 0.9 0  0.95 0.9 0  1 0.9 0  0 0.95 0  0.05 0.95 0  0.1 0.95 0  0.15 0.95 0  0.2 0.95 0  0.25 0.95 0  0.3 0.95 0  0.35 0.95 0  0.4 0.95 0  0.45 0.95 0  0.5 0.95 0  0.55 0.95 0  0.6 0.95 0  0.65 0.95 0  0.7 0.95 0  0.75 0.95 0  0.8 0.95 0  0.85 0.95 0  0.9 0.95 0  0.95 0.95 0  1 0.95 0  0 1 0  0.05 1 0  0.1 1 0  0.15 1 0  0.2 1 0  0.25 1 0  0.3 1 0  0.35 1 0  0.4 1 0  0.45 1 0  0.5 1 0  0.55 1 0  0.6 1 0  0.65 1 0  0.7 1 0  0.75 1 0  0.8 1 0  0.85 1 0  0.9 1 0  0.95 1 0  1 1 0  </DataArray>
</Points>
<Cells>
[...]
<PointData  Vectors="f_137"> 
<DataArray  type="Float64"  Name="f_137"  NumberOfComponents="3" format="ascii">0.0000000000000000e+00 0.0000000000000000e+00 0.0000000000000000e+00  0.0000000000000000e+00 0.0000000000000000e+00 0.0000000000000000e+00  0.0000000000000000e+00 0.0000000000000000e+00 0.0000000000000000e+00  0.0000000000000000e+00 0.0000000000000000e+00 0.0000000000000000e+00  0.0000000000000000e+00 0.0000000000000000e+00 0.0000000000000000e+00  0.0000000000000000e+00 0.0000000000000000e+00 0.0000000000000000e+00  0.0000000000000000e+00 0.0000000000000000e+00 0.0000000000000000e+00  0.0000000000000000e+00 0.0000000000000000e+00 0.0000000000000000e+00  0.0000000000000000e+00 0.0000000000000000e+00 0.0000000000000000e+00  0.0000000000000000e+00 0.0000000000000000e+00 0.0000000000000000e+00  0.0000000000000000e+00 0.0000000000000000e+00 0.0000000000000000e+00  0.0000000000000000e+00 0.0000000000000000e+00 0.0000000000000000e+00  0.0000000000000000e+00 0.0000000000000000e+00 0.0000000000000000e+00  0.0000000000000000e+00 0.0000000000000000e+00 0.0000000000000000e+00  0.0000000000000000e+00 0.0000000000000000e+00 0.0000000000000000e+00  0.0000000000000000e+00 0.0000000000000000e+00 0.0000000000000000e+00  0.0000000000000000e+00 0.0000000000000000e+00 0.0000000000000000e+00  0.0000000000000000e+00 0.0000000000000000e+00 0.0000000000000000e+00  0.0000000000000000e+00 0.0000000000000000e+00 0.0000000000000000e+00  0.0000000000000000e+00 0.0000000000000000e+00 0.0000000000000000e+00  0.0000000000000000e+00 0.0000000000000000e+00 0.0000000000000000e+00  0.0000000000000000e+00 0.0000000000000000e+00 0.0000000000000000e+00  -8.3161328202635532e-04 8.2377133893315991e-04 0.0000000000000000e+00  -2.2711391455944477e-03 9.1624311970026160e-04 0.0000000000000000e+00  -3.7063633958509747e-03 8.6879397368567687e-04 0.0000000000000000e+00  -5.0463359287396163e-03 8.0128773920750719e-04 0.0000000000000000e+00  -6.2604360204382417e-03 7.1362513926992877e-04 0.0000000000000000e+00  -7.3167815483636163e-03 6.0765128737175992e-04 0.0000000000000000e+00  -8.1880878629681918e-03 4.8539624248301357e-04 0.0000000000000000e+00  -8.8507149003686260e-03 3.4915882375291583e-04 0.0000000000000000e+00  -9.2851886932177226e-03 2.0153759348566367e-04 0.0000000000000000e+00  -9.4766192062618118e-03 4.5464378104730492e-05 0.0000000000000000e+00  -9.4151899358529481e-03 -1.1571110362700642e-04 0.0000000000000000e+00  -9.0967820075300940e-03 -2.7813093919837778e-04 0.0000000000000000e+00  -8.5237110072822822e-03 -4.3736993733623679e-04 0.0000000000000000e+00  -7.7055326828799012e-03 -5.8845887757900679e-04 0.0000000000000000e+00  -6.6596658618883267e-03 -7.2600484080960123e-04 0.0000000000000000e+00  -5.4119340580603822e-03 -8.4450533827669795e-04 0.0000000000000000e+00  -3.9961238900724271e-03 -9.3836478191124031e-04 0.0000000000000000e+00  -2.4599008821179157e-03 -9.9377442027033156e-04 0.0000000000000000e+00  -8.9099541179718544e-04 -8.9023602296157121e-04 0.0000000000000000e+00  0.0000000000000000e+00 0.0000000000000000e+00 0.0000000000000000e+00  0.0000000000000000e+00 0.0000000000000000e+00 0.0000000000000000e+00  -9.7731389629791008e-04 2.2976505719761141e-03 0.0000000000000000e+00  -2.6287718683245262e-03 2.5158665155820665e-03 0.0000000000000000e+00  -4.2626694137490326e-03 2.3954670044073851e-03 0.0000000000000000e+00  -5.7920585939491261e-03 2.2065921996692766e-03 0.0000000000000000e+00  -7.1753211873392319e-03 1.9618964176699796e-03 0.0000000000000000e+00  -8.3772564812470088e-03 1.6671750111995625e-03 0.0000000000000000e+00  -9.3672113151800785e-03 1.3284498411038235e-03 0.0000000000000000e+00  -1.0118928143165467e-02 9.5245643399692647e-04 0.0000000000000000e+00  -1.0610987180279445e-02 5.4656004017602784e-04 0.0000000000000000e+00  -1.0827072189325744e-02 1.1886923150913245e-04 0.0000000000000000e+00  -1.0756405158638802e-02 -3.2154093298821830e-04 0.0000000000000000e+00  -1.0394369407361952e-02 -7.6437013956552852e-04 0.0000000000000000e+00  -9.7433302300635998e-03 -1.1979000689296168e-03 0.0000000000000000e+00  -8.8136125836865871e-03 -1.6089914118084525e-03 0.0000000000000000e+00  -7.6242902191737414e-03 -1.9833862701195862e-03 0.0000000000000000e+00  -6.2044116226874762e-03 -2.3063010673483090e-03 0.0000000000000000e+00  -4.5917448399010862e-03 -2.5627214645349539e-03 0.0000000000000000e+00  -2.8394118499538712e-03 -2.7205176116477281e-03 0.0000000000000000e+00  -1.0532605355565616e-03 -2.4982613968778013e-03 0.0000000000000000e+00  0.0000000000000000e+00 0.0000000000000000e+00 0.0000000000000000e+00  0.0000000000000000e+00 0.0000000000000000e+00 0.0000000000000000e+00  -1.0246818945685834e-03 3.8859148317533596e-03 0.0000000000000000e+00  -2.7698754047784605e-03 4.2291736301127382e-03 0.0000000000000000e+00  -4.4945326832431173e-03 4.0269529133838229e-03 0.0000000000000000e+00  -6.1093398344576385e-03 3.7077044693316530e-03 0.0000000000000000e+00  -7.5702036579980850e-03 3.2947460242259241e-03 0.0000000000000000e+00  -8.8411338661807028e-03 2.7981763953269859e-03 0.0000000000000000e+00  -9.8902900540785276e-03 2.2286207846864948e-03 0.0000000000000000e+00  -1.0690601401524370e-02 1.5975252439812916e-03 0.0000000000000000e+00  -1.1219769127767364e-02 9.1714024076625718e-04 0.0000000000000000e+00  -1.1460379433507042e-02 2.0074351268249108e-04 0.0000000000000000e+00  -1.1400218350531482e-02 -5.3693150098879595e-04 0.0000000000000000e+00  -1.1032891409762718e-02 -1.2791636267566755e-03 0.0000000000000000e+00  -1.0358802645934941e-02 -2.0067909352188482e-03 0.0000000000000000e+00  -9.3864720046288475e-03 -2.6980653426940909e-03 0.0000000000000000e+00  -8.1338196305913019e-03 -3.3290304770477040e-03 0.0000000000000000e+00  -6.6299428177998771e-03 -3.8744861906541625e-03 0.0000000000000000e+00  -4.9139644054202233e-03 -4.3083772199297207e-03 0.0000000000000000e+00  -3.0429984759369607e-03 -4.5805253038072417e-03 0.0000000000000000e+00  -1.1297154306855600e-03 -4.2257974753210515e-03 0.0000000000000000e+00  0.0000000000000000e+00 0.0000000000000000e+00 0.0000000000000000e+00  0.0000000000000000e+00 0.0000000000000000e+00 0.0000000000000000e+00  -1.0996077588202422e-03 5.5705782454062340e-03 0.0000000000000000e+00  -2.9728236382391233e-03 6.0523851287094151e-03 0.0000000000000000e+00  -4.8242597153176445e-03 5.7635384708084160e-03 0.0000000000000000e+00  -6.5573129777393019e-03 5.3059533895082420e-03 0.0000000000000000e+00  -8.1254423198734750e-03 4.7149286816413468e-03 0.0000000000000000e+00  -9.4912099360112689e-03 4.0055904631753460e-03 0.0000000000000000e+00  -1.0621700086914451e-02 3.1933954755301573e-03 0.0000000000000000e+00  -1.1489080694070208e-02 2.2945465533012054e-03 0.0000000000000000e+00  -1.2070161021131346e-02 1.3259748298275100e-03 0.0000000000000000e+00  -1.2346199559636022e-02 3.0568968036558640e-04 0.0000000000000000e+00  -1.2302964299862593e-02 -7.4646845581619178e-04 0.0000000000000000e+00  -1.1931292123200972e-02 -1.8078376418944019e-03 0.0000000000000000e+00  -1.1228274713380991e-02 -2.8519863488977331e-03 0.0000000000000000e+00  -1.0199110425214890e-02 -3.8481834268988113e-03 0.0000000000000000e+00  -8.8591671913255936e-03 -4.7616852171401235e-03 0.0000000000000000e+00  -7.2368547297288919e-03 -5.5550302080262471e-03 0.0000000000000000e+00  -5.3729744666428884e-03 -6.1890220141540492e-03 0.0000000000000000e+00  -3.3306233853656469e-03 -6.5917592381056342e-03 0.0000000000000000e+00  -1.2362090939912868e-03 -6.0971716950003708e-03 0.0000000000000000e+00  0.0000000000000000e+00 0.0000000000000000e+00 0.0000000000000000e+00  0.0000000000000000e+00 0.0000000000000000e+00 0.0000000000000000e+00  -1.2029098388308885e-03 7.3981011625354779e-03 0.0000000000000000e+00  -3.2517861518602709e-03 8.0286338013291578e-03 0.0000000000000000e+00  -5.2760705532305845e-03 7.6445473258424977e-03 0.0000000000000000e+00  -7.1694778126315528e-03 7.0364756082069400e-03 0.0000000000000000e+00  -8.8823719536088221e-03 6.2531944596217279e-03 0.0000000000000000e+00  -1.0375425939491473e-02 5.3156120924023140e-03 0.0000000000000000e+00  -1.1614807571554921e-02 4.2445377240072626e-03 0.0000000000000000e+00  -1.2572208993352520e-02 3.0610627795038120e-03 0.0000000000000000e+00  -1.3223818506008131e-02 1.7864393215977828e-03 0.0000000000000000e+00  -1.3549542233199319e-02 4.4262675421806290e-04 0.0000000000000000e+00  -1.3532594892832109e-02 -9.4646410720237648e-04 0.0000000000000000e+00  -1.3159854550418806e-02 -2.3532418736463031e-03 0.0000000000000000e+00  -1.2423248138495935e-02 -3.7446074366819329e-03 0.0000000000000000e+00  -1.1322343062590980e-02 -5.0806081155803165e-03 0.0000000000000000e+00  -9.8676483982597409e-03 -6.3142684806292339e-03 0.0000000000000000e+00  -8.0853315269286130e-03 -7.3931079682444294e-03 0.0000000000000000e+00  -6.0177357176417479e-03 -8.2608364032463796e-03 0.0000000000000000e+00  -3.7364807441872690e-03 -8.8182061233356250e-03 0.0000000000000000e+00  -1.3873654208389132e-03 -8.1725453082945928e-03 0.0000000000000000e+00  0.0000000000000000e+00 0.0000000000000000e+00 0.0000000000000000e+00  0.0000000000000000e+00 0.0000000000000000e+00 0.0000000000000000e+00  -1.3378912463901521e-03 9.4149351115909337e-03 0.0000000000000000e+00  -3.6157072633787256e-03 1.0207760520583139e-02 0.0000000000000000e+00  -5.8634923750062844e-03 9.7167687153871755e-03 0.0000000000000000e+00  -7.9628567994792822e-03 8.9412842577712495e-03 0.0000000000000000e+00  -9.8601228169902522e-03 7.9460818570107720e-03 0.0000000000000000e+00  -1.1514048291183862e-02 6.7593741014331625e-03 0.0000000000000000e+00  -1.2890482293940233e-02 5.4082810060698174e-03 0.0000000000000000e+00  -1.3961548826045944e-02 3.9190078238584437e-03 0.0000000000000000e+00  -1.4703690703152186e-02 2.3165722970776509e-03 0.0000000000000000e+00  -1.5095924259048907e-02 6.2560722366660361e-04 0.0000000000000000e+00  -1.5118605921202453e-02 -1.1276972134554924e-03 0.0000000000000000e+00  -1.4753286437223536e-02 -2.9127393847510992e-03 0.0000000000000000e+00  -1.3984157599179377e-02 -4.6912194823270576e-03 0.0000000000000000e+00  -1.2801549972132634e-02 -6.4142399172931516e-03 0.0000000000000000e+00  -1.1207065574344408e-02 -8.0209381447126256e-03 0.0000000000000000e+00  -9.2213243477079106e-03 -9.4397842507370697e-03 0.0000000000000000e+00  -6.8868915925926139e-03 -1.0591166838551956e-02 0.0000000000000000e+00  -4.2862729138220959e-03 -1.1339603967060078e-02 0.0000000000000000e+00  -1.5929978742606141e-03 -1.0529500568005537e-02 0.0000000000000000e+00  0.0000000000000000e+00 0.0000000000000000e+00 0.0000000000000000e+00  0.0000000000000000e+00 0.0000000000000000e+00 0.0000000000000000e+00  -1.5092446685969212e-03 1.1675060105764332e-02 0.0000000000000000e+00  -4.0766146950276926e-03 1.2645938397577055e-02 0.0000000000000000e+00  -6.6046497243682735e-03 1.2030926131638749e-02 0.0000000000000000e+00  -8.9595030585485728e-03 1.1064272261562405e-02 0.0000000000000000e+00  -1.1082563185103816e-02 9.8304569703798472e-03 0.0000000000000000e+00  -1.2931168387339396e-02 8.3673740395402915e-03 0.0000000000000000e+00  -1.4472238299552609e-02 6.7099855138631091e-03 0.0000000000000000e+00  -1.5680211575543803e-02 4.8900284402525421e-03 0.0000000000000000e+00  -1.6533646032402385e-02 2.9354803547674991e-03 0.0000000000000000e+00  -1.7011984182953035e-02 8.7166963366235278e-04 0.0000000000000000e+00  -1.7092955541025960e-02 -1.2758588757344649e-03 0.0000000000000000e+00  -1.6751404025777863e-02 -3.4769100070555919e-03 0.0000000000000000e+00  -1.5960369005883615e-02 -5.6910939206767904e-03 0.0000000000000000e+00  -1.4695425940621284e-02 -7.8621510153642927e-03 0.0000000000000000e+00  -1.2942315042343994e-02 -9.9139238672623572e-03 0.0000000000000000e+00  -1.0709587563758654e-02 -1.1750331080444598e-02 0.0000000000000000e+00  -8.0362334923038681e-03 -1.3258792085332836e-02 0.0000000000000000e+00  -5.0179288527136701e-03 -1.4253444986863253e-02 0.0000000000000000e+00  -1.8677050511104775e-03 -1.3264659854556667e-02 0.0000000000000000e+00  0.0000000000000000e+00 0.0000000000000000e+00 0.0000000000000000e+00  0.0000000000000000e+00 0.0000000000000000e+00 0.0000000000000000e+00  -1.7238846453016740e-03 1.4241247599287179e-02 0.0000000000000000e+00  -4.6520506319464097e-03 1.5407332915352656e-02 0.0000000000000000e+00  -7.5251857097939816e-03 1.4643531317962090e-02 0.0000000000000000e+00  -1.0189686480607944e-02 1.3452435826960669e-02 0.0000000000000000e+00  -1.2581241939797136e-02 1.1943860894123795e-02 0.0000000000000000e+00  -1.4657054359476871e-02 1.0169186319845985e-02 0.0000000000000000e+00  -1.6387777873242543e-02 8.1736392966188127e-03 0.0000000000000000e+00  -1.7753531495317151e-02 5.9951974153425935e-03 0.0000000000000000e+00  -1.8738357041710917e-02 3.6636885837565201e-03 0.0000000000000000e+00  -1.9324823751693216e-02 1.2022543288937890e-03 0.0000000000000000e+00  -1.9489363198737064e-02 -1.3687102398449807e-03 0.0000000000000000e+00  -1.9199211087374157e-02 -4.0251556989221171e-03 0.0000000000000000e+00  -1.8412064033600021e-02 -6.7305674263640454e-03 0.0000000000000000e+00  -1.7080637922346115e-02 -9.4256170299894700e-03 0.0000000000000000e+00  -1.5163264116689695e-02 -1.2018957107775318e-02 0.0000000000000000e+00  -1.2644074101884836e-02 -1.4383305508694913e-02 0.0000000000000000e+00  -9.5494602551467432e-03 -1.6358307980520417e-02 0.0000000000000000e+00  -5.9893618470649047e-03 -1.7684225936378591e-02 0.0000000000000000e+00  -2.2338210177618545e-03 -1.6503496304025894e-02 0.0000000000000000e+00  0.0000000000000000e+00 0.0000000000000000e+00 0.0000000000000000e+00  0.0000000000000000e+00 0.0000000000000000e+00 0.0000000000000000e+00  -1.9922317433077740e-03 1.7189416684437481e-02 0.0000000000000000e+00  -5.3678172000707685e-03 1.8567627775306076e-02 0.0000000000000000e+00  -8.6618892371361188e-03 1.7618387643810761e-02 0.0000000000000000e+00  -1.1695479553102949e-02 1.6155432884911582e-02 0.0000000000000000e+00  -1.4398130839950941e-02 1.4322596978888463e-02 0.0000000000000000e+00  -1.6729602749202783e-02 1.2190668624678117e-02 0.0000000000000000e+00  -1.8668947319790942e-02 9.8187906903634010e-03 0.0000000000000000e+00  -2.0207504861712224e-02 7.2522698920558298e-03 0.0000000000000000e+00  -2.1340318842319315e-02 4.5213342289869641e-03 0.0000000000000000e+00  -2.2057894754938571e-02 1.6429882841555389e-03 0.0000000000000000e+00  -2.2338733410623125e-02 -1.3740435146424380e-03 0.0000000000000000e+00  -2.2142909255091880e-02 -4.5207229798792190e-03 0.0000000000000000e+00  -2.1408453950930072e-02 -7.7746639735450946e-03 0.0000000000000000e+00  -2.0054712119527397e-02 -1.1083360482393216e-02 0.0000000000000000e+00  -1.7994327180460106e-02 -1.4345939112566604e-02 0.0000000000000000e+00  -1.5163410785812230e-02 -1.7397672173077711e-02 0.0000000000000000e+00  -1.1554967767145890e-02 -2.0006274181943971e-02 0.0000000000000000e+00  -7.2908665633749890e-03 -2.1796926121034076e-02 0.0000000000000000e+00  -2.7260152684292697e-03 -2.0415385070234635e-02 0.0000000000000000e+00  0.0000000000000000e+00 0.0000000000000000e+00 0.0000000000000000e+00  0.0000000000000000e+00 0.0000000000000000e+00 0.0000000000000000e+00  -2.3303986327407049e-03 2.0615203207475067e-02 0.0000000000000000e+00  -6.2627987365087004e-03 2.2218825627918964e-02 0.0000000000000000e+00  -1.0068680987332773e-02 2.1028528517132689e-02 0.0000000000000000e+00  -1.3536339544676066e-02 1.9224723332099056e-02 0.0000000000000000e+00  -1.6589699409266117e-02 1.6998725455241431e-02 0.0000000000000000e+00  -1.9196344552438238e-02 1.4449730082233646e-02 0.0000000000000000e+00  -2.1351533248107100e-02 1.1655960093583257e-02 0.0000000000000000e+00  -2.3066414221909928e-02 8.6714577379624971e-03 0.0000000000000000e+00  -2.4355382059820210e-02 5.5249435176658711e-03 0.0000000000000000e+00  -2.5224642044507990e-02 2.2222233667381556e-03 0.0000000000000000e+00  -2.5661034587527304e-02 -1.2479106674801418e-03 0.0000000000000000e+00  -2.5620677531355301e-02 -4.9032195307837289e-03 0.0000000000000000e+00  -2.5021451941650473e-02 -8.7531151962459541e-03 0.0000000000000000e+00  -2.3738592287142514e-02 -1.2775439381029546e-02 0.0000000000000000e+00  -2.1608659482605375e-02 -1.6876621864270400e-02 0.0000000000000000e+00  -1.8474652972691165e-02 -2.0846260880673154e-02 0.0000000000000000e+00  -1.4253437714853609e-02 -2.4342553025340531e-02 0.0000000000000000e+00  -9.0686705401101624e-03 -2.6812501489443596e-02 0.0000000000000000e+00  -3.4031613313076606e-03 -2.5241622989200421e-02 0.0000000000000000e+00  0.0000000000000000e+00 0.0000000000000000e+00 0.0000000000000000e+00  0.0000000000000000e+00 0.0000000000000000e+00 0.0000000000000000e+00  -2.7641986095183336e-03 2.4644687781552779e-02 0.0000000000000000e+00  -7.3973916787897828e-03 2.6476550188898097e-02 0.0000000000000000e+00  -1.1826572199312118e-02 2.4958415990431127e-02 0.0000000000000000e+00  -1.5797926731975467e-02 2.2711115813278334e-02 0.0000000000000000e+00  -1.9232965376309745e-02 1.9994497919005805e-02 0.0000000000000000e+00  -2.2117227554266296e-02 1.6949329474170591e-02 0.0000000000000000e+00  -2.4474960117343653e-02 1.3679424077751322e-02 0.0000000000000000e+00  -2.6349749721539296e-02 1.0248672627672952e-02 0.0000000000000000e+00  -2.7787008015245813e-02 6.6815614946566888e-03 0.0000000000000000e+00  -2.8819456657295732e-02 2.9672549467512368e-03 0.0000000000000000e+00  -2.9451700223977691e-02 -9.3373005792681809e-04 0.0000000000000000e+00  -2.9648335909935191e-02 -5.0833375115349605e-03 0.0000000000000000e+00  -2.9318000826710613e-02 -9.5562486636564456e-03 0.0000000000000000e+00  -2.8272032595258678e-02 -1.4392998348332601e-02 0.0000000000000000e+00  -2.6231484153468314e-02 -1.9521184492588738e-02 0.0000000000000000e+00  -2.2884866259433867e-02 -2.4706635427804012e-02 0.0000000000000000e+00  -1.7980624366306538e-02 -2.9500707030808249e-02 0.0000000000000000e+00  -1.1581074681538664e-02 -3.3062057302012768e-02 0.0000000000000000e+00  -4.3672260901125477e-03 -3.1376658306094721e-02 0.0000000000000000e+00  0.0000000000000000e+00 0.0000000000000000e+00 0.0000000000000000e+00  0.0000000000000000e+00 0.0000000000000000e+00 0.0000000000000000e+00  -3.3367657769748670e-03 2.9452447290636698e-02 0.0000000000000000e+00  -8.8686219708457980e-03 3.1491078527244858e-02 0.0000000000000000e+00  -1.4060446275352783e-02 2.9505758053887197e-02 0.0000000000000000e+00  -1.8605811809261592e-02 2.6659050343946816e-02 0.0000000000000000e+00  -2.2433922438485049e-02 2.3312551335854550e-02 0.0000000000000000e+00  -2.5567872860839922e-02 1.9666567716384011e-02 0.0000000000000000e+00  -2.8081526266495589e-02 1.5856800229476289e-02 0.0000000000000000e+00  -3.0068458964260570e-02 1.1955944515349525e-02 0.0000000000000000e+00  -3.1619464348920129e-02 7.9800535581579356e-03 0.0000000000000000e+00  -3.2805699163461495e-02 3.8966684972870495e-03 0.0000000000000000e+00  -3.3665620241316814e-02 -3.7207193513383085e-04 0.0000000000000000e+00  -3.4202478410708025e-02 -4.9536171911901640e-03 0.0000000000000000e+00  -3.4312268234895728e-02 -9.9888198407310832e-03 0.0000000000000000e+00  -3.3737859483361235e-02 -1.5581595595459612e-02 0.0000000000000000e+00  -3.2149644971739180e-02 -2.1847044948960243e-02 0.0000000000000000e+00  -2.8933920936077013e-02 -2.8819922813691019e-02 0.0000000000000000e+00  -2.3366949832801694e-02 -3.5834480053446111e-02 0.0000000000000000e+00  -1.5251674140705810e-02 -4.1235218792920816e-02 0.0000000000000000e+00  -5.7349827625541930e-03 -3.9385908145503058e-02 0.0000000000000000e+00  0.0000000000000000e+00 0.0000000000000000e+00 0.0000000000000000e+00  0.0000000000000000e+00 0.0000000000000000e+00 0.0000000000000000e+00  -4.1238417091527292e-03 3.5292786923240976e-02 0.0000000000000000e+00  -1.0838082186020455e-02 3.7464251946390970e-02 0.0000000000000000e+00  -1.6967769606322212e-02 3.4780660295969025e-02 0.0000000000000000e+00  -2.2146177562801669e-02 3.1093796895502311e-02 0.0000000000000000e+00  -2.6337953958985156e-02 2.6918701509714375e-02 0.0000000000000000e+00  -2.9641910486905423