<?xml version="1.0"?>
<VTKFile type="UnstructuredGrid"  version="0.1"  >
<UnstructuredGrid>
<Piece  NumberOfPoints="441" NumberOfCells="800">
<Points>
<DataArray  type="Float64"  NumberOfComponents="3"  format="ascii">0 0 0  0.05 0 0  0.1 0 0  0.15 0 0  0.2 0 0  0.25 0 0  0.3 0 0  0.35 0 0  0.4 0 0  0.45 0 0  0.5 0 0  0.55 0 0  0.6 0 0  0.65 0 0  0.7 0 0  0.75 0 0  0.8 0 0  0.85 0 0  0.9 0 0  0.95 0 0  1 0 0  0 0.05 0  0.05 0.05 0  0.1 0.05 0  0.15 0.05 0  0.2 0.05 0  0.25 0.05 0  0.3 0.05 0  0.35 0.05 0  0.4 0.05 0  0.45 0.05 0  0.5 0.05 0  0.55 0.05 0  0.6 0.05 0  0.65 0.05 0  0.7 0.05 0  0.75 0.05 0  0.8 0.05 0  0.85 0.05 0  0.9 0.05 0  0.95 0.05 0  1 0.05 0  0 0.1 0  0.05 0.1 0  0.1 0.1 0  0.15 0.1 0  0.2 0.1 0  0.25 0.1 0  0.3 0.1 0  0.35 0.1 0  0.4 0.1 0  0.45 0.1 0  0.5 0.1 0  0.55 0.1 0  0.6 0.1 0  0.65 0.1 0  0.7 0.1 0  0.75 0.1 0  0.8 0.1 0  0.85 0.1 0  0.9 0.1 0  0.95 0.1 0  1 0.1 0  0 0.15 0  0.05 0.15 0  0.1 0.15 0  0.15 0.15 0  0.2 0.15 0  0.25 0.15 0  0.3 0.15 0  0.35 0.15 0  0.4 0.15 0  0.45 0.15 0  0.5 0.15 0  0.55 0.15 0  0.6 0.15 0  0.65 0.15 0  0.7 0.15 0  0.75 0.15 0  0.8 0.15 0  0.85 0.15 0  0.9 0.15 0  0.95 0.15 0  1 0.15 0  0 0.2 0  0.05 0.2 0  0.1 0.2 0  0.15 0.2 0  0.2 0.2 0  0.25 0.2 0  0.3 0.2 0  0.35 0.2 0  0.4 0.2 0  0.45 0.2 0  0.5 0.2 0  0.55 0.2 0  0.6 0.2 0  0.65 0.2 0  0.7 0.2 0  0.75 0.2 0  0.8 0.2 0  0.85 0.2 0  0.9 0.2 0  0.95 0.2 0  1 0.2 0  0 0.25 0  0.05 0.25 0  0.1 0.25 0  0.15 0.25 0  0.2 0.25 0  0.25 0.25 0  0.3 0.25 0  0.35 0.25 0  0.4 0.25 0  0.45 0.25 0  0.5 0.25 0  0.55 0.25 0  0.6 0.25 0  0.65 0.25 0  0.7 0.25 0  0.75 0.25 0  0.8 0.25 0  0.85 0.25 0  0.9 0.25 0  0.95 0.25 0  1 0.25 0  0 0.3 0  0.05 0.3 0  0.1 0.3 0  0.15 0.3 0  0.2 0.3 0  0.25 0.3 0  0.3 0.3 0  0.35 0.3 0  0.4 0.3 0  0.45 0.3 0  0.5 0.3 0  0.55 0.3 0  0.6 0.3 0  0.65 0.3 0  0.7 0.3 0  0.75 0.3 0  0.8 0.3 0  0.85 0.3 0  0.9 0.3 0  0.95 0.3 0  1 0.3 0  0 0.35 0  0.05 0.35 0  0.1 0.35 0  0.15 0.35 0  0.2 0.35 0  0.25 0.35 0  0.3 0.35 0  0.35 0.35 0  0.4 0.35 0  0.45 0.35 0  0.5 0.35 0  0.55 0.35 0  0.6 0.35 0  0.65 0.35 0  0.7 0.35 0  0.75 0.35 0  0.8 0.35 0  0.85 0.35 0  0.9 0.35 0  0.95 0.35 0  1 0.35 0  0 0.4 0  0.05 0.4 0  0.1 0.4 0  0.15 0.4 0  0.2 0.4 0  0.25 0.4 0  0.3 0.4 0  0.35 0.4 0  0.4 0.4 0  0.45 0.4 0  0.5 0.4 0  0.55 0.4 0  0.6 0.4 0  0.65 0.4 0  0.7 0.4 0  0.75 0.4 0  0.8 0.4 0  0.85 0.4 0  0.9 0.4 0  0.95 0.4 0  1 0.4 0  0 0.45 0  0.05 0.45 0  0.1 0.45 0  0.15 0.45 0  0.2 0.45 0  0.25 0.45 0  0.3 0.45 0  0.35 0.45 0  0.4 0.45 0  0.45 0.45 0  0.5 0.45 0  0.55 0.45 0  0.6 0.45 0  0.65 0.45 0  0.7 0.45 0  0.75 0.45 0  0.8 0.45 0  0.85 0.45 0  0.9 0.45 0  0.95 0.45 0  1 0.45 0  0 0.5 0  0.05 0.5 0  0.1 0.5 0  0.15 0.5 0  0.2 0.5 0  0.25 0.5 0  0.3 0.5 0  0.35 0.5 0  0.4 0.5 0  0.45 0.5 0  0.5 0.5 0  0.55 0.5 0  0.6 0.5 0  0.65 0.5 0  0.7 0.5 0  0.75 0.5 0  0.8 0.5 0  0.85 0.5 0  0.9 0.5 0  0.95 0.5 0  1 0.5 0  0 0.55 0  0.05 0.55 0  0.1 0.55 0  0.15 0.55 0  0.2 0.55 0  0.25 0.55 0  0.3 0.55 0  0.35 0.55 0  0.4 0.55 0  0.45 0.55 0  0.5 0.55 0  0.55 0.55 0  0.6 0.55 0  0.65 0.55 0  0.7 0.55 0  0.75 0.55 0  0.8 0.55 0  0.85 0.55 0  0.9 0.55 0  0.95 0.55 0  1 0.55 0  0 0.6 0  0.05 0.6 0  0.1 0.6 0  0.15 0.6 0  0.2 0.6 0  0.25 0.6 0  0.3 0.6 0  0.35 0.6 0  0.4 0.6 0  0.45 0.6 0  0.5 0.6 0  0.55 0.6 0  0.6 0.6 0  0.65 0.6 0  0.7 0.6 0  0.75 0.6 0  0.8 0.6 0  0.85 0.6 0  0.9 0.6 0  0.95 0.6 0  1 0.6 0  0 0.65 0  0.05 0.65 0  0.1 0.65 0  0.15 0.65 0  0.2 0.65 0  0.25 0.65 0  0.3 0.65 0  0.35 0.65 0  0.4 0.65 0  0.45 0.65 0  0.5 0.65 0  0.55 0.65 0  0.6 0.65 0  0.65 0.65 0  0.7 0.65 0  0.75 0.65 0  0.8 0.65 0  0.85 0.65 0  0.9 0.65 0  0.95 0.65 0  1 0.65 0  0 0.7 0  0.05 0.7 0  0.1 0.7 0  0.15 0.7 0  0.2 0.7 0  0.25 0.7 0  0.3 0.7 0  0.35 0.7 0  0.4 0.7 0  0.45 0.7 0  0.5 0.7 0  0.55 0.7 0  0.6 0.7 0  0.65 0.7 0  0.7 0.7 0  0.75 0.7 0  0.8 0.7 0  0.85 0.7 0  0.9 0.7 0  0.95 0.7 0  1 0.7 0  0 0.75 0  0.05 0.75 0  0.1 0.75 0  0.15 0.75 0  0.2 0.75 0  0.25 0.75 0  0.3 0.75 0  0.35 0.75 0  0.4 0.75 0  0.45 0.75 0  0.5 0.75 0  0.55 0.75 0  0.6 0.75 0  0.65 0.75 0  0.7 0.75 0  0.75 0.75 0  0.8 0.75 0  0.85 0.75 0  0.9 0.75 0  0.95 0.75 0  1 0.75 0  0 0.8 0  0.05 0.8 0  0.1 0.8 0  0.15 0.8 0  0.2 0.8 0  0.25 0.8 0  0.3 0.8 0  0.35 0.8 0  0.4 0.8 0  0.45 0.8 0  0.5 0.8 0  0.55 0.8 0  0.6 0.8 0  0.65 0.8 0  0.7 0.8 0  0.75 0.8 0  0.8 0.8 0  0.85 0.8 0  0.9 0.8 0  0.95 0.8 0  1 0.8 0  0 0.85 0  0.05 0.85 0  0.1 0.85 0  0.15 0.85 0  0.2 0.85 0  0.25 0.85 0  0.3 0.85 0  0.35 0.85 0  0.4 0.85 0  0.45 0.85 0  0.5 0.85 0  0.55 0.85 0  0.6 0.85 0  0.65 0.85 0  0.7 0.85 0  0.75 0.85 0  0.8 0.85 0  0.85 0.85 0  0.9 0.85 0  0.95 0.85 0  1 0.85 0  0 0.9 0  0.05 0.9 0  0.1 0.9 0  0.15 0.9 0  0.2 0.9 0  0.25 0.9 0  0.3 0.9 0  0.35 0.9 0  0.4 0.9 0  0.45 0.9 0  0.5 0.9 0  0.55 0.9 0  0.6 0.9 0  0.65 0.9 0  0.7 0.9 0  0.75 0.9 0  0.8 0.9 0  0.85 0.9 0  0.9 0.9 0  0.95 0.9 0  1 0.9 0  0 0.95 0  0.05 0.95 0  0.1 0.95 0  0.15 0.95 0  0.2 0.95 0  0.25 0.95 0  0.3 0.95 0  0.35 0.95 0  0.4 0.95 0  0.45 0.95 0  0.5 0.95 0  0.55 0.95 0  0.6 0.95 0  0.65 0.95 0  0.7 0.95 0  0.75 0.95 0  0.8 0.95 0  0.85 0.95 0  0.9 0.95 0  0.95 0.95 0  1 0.95 0  0 1 0  0.05 1 0  0.1 1 0  0.15 1 0  0.2 1 0  0.25 1 0  0.3 1 0  0.35 1 0  0.4 1 0  0.45 1 0  0.5 1 0  0.55 1 0  0.6 1 0  0.65 1 0  0.7 1 0  0.75 1 0  0.8 1 0  0.85 1 0  0.9 1 0  0.95 1 0  1 1 0  </DataArray>
</Points>
<Cells>
[...]
<PointData  Vectors="f_137"> 
<DataArray  type="Float64"  Name="f_137"  NumberOfComponents="3" format="ascii">0.0000000000000000e+00 0.0000000000000000e+00 0.0000000000000000e+00  0.0000000000000000e+00 0.0000000000000000e+00 0.0000000000000000e+00  0.0000000000000000e+00 0.0000000000000000e+00 0.0000000000000000e+00  0.0000000000000000e+00 0.0000000000000000e+00 0.0000000000000000e+00  0.0000000000000000e+00 0.0000000000000000e+00 0.0000000000000000e+00  0.0000000000000000e+00 0.0000000000000000e+00 0.0000000000000000e+00  0.0000000000000000e+00 0.0000000000000000e+00 0.0000000000000000e+00  0.0000000000000000e+00 0.0000000000000000e+00 0.0000000000000000e+00  0.0000000000000000e+00 0.0000000000000000e+00 0.0000000000000000e+00  0.0000000000000000e+00 0.0000000000000000e+00 0.0000000000000000e+00  0.0000000000000000e+00 0.0000000000000000e+00 0.0000000000000000e+00  0.0000000000000000e+00 0.0000000000000000e+00 0.0000000000000000e+00  0.0000000000000000e+00 0.0000000000000000e+00 0.0000000000000000e+00  0.0000000000000000e+00 0.0000000000000000e+00 0.0000000000000000e+00  0.0000000000000000e+00 0.0000000000000000e+00 0.0000000000000000e+00  0.0000000000000000e+00 0.0000000000000000e+00 0.0000000000000000e+00  0.0000000000000000e+00 0.0000000000000000e+00 0.0000000000000000e+00  0.0000000000000000e+00 0.0000000000000000e+00 0.0000000000000000e+00  0.0000000000000000e+00 0.0000000000000000e+00 0.0000000000000000e+00  0.0000000000000000e+00 0.0000000000000000e+00 0.0000000000000000e+00  0.0000000000000000e+00 0.0000000000000000e+00 0.0000000000000000e+00  0.0000000000000000e+00 0.0000000000000000e+00 0.0000000000000000e+00  -8.3004807361862032e-04 8.2224094210949948e-04 0.0000000000000000e+00  -2.2778131465587374e-03 9.2058295681371417e-04 0.0000000000000000e+00  -3.7253857537529167e-03 8.7349254944740784e-04 0.0000000000000000e+00  -5.0774337766747576e-03 8.0606121627938151e-04 0.0000000000000000e+00  -6.3031852280395605e-03 7.1839792860063406e-04 0.0000000000000000e+00  -7.3704362111764576e-03 6.1230005773025946e-04 0.0000000000000000e+00  -8.2515865491500171e-03 4.8975657381921029e-04 0.0000000000000000e+00  -8.9226397623994452e-03 3.5302960515915861e-04 0.0000000000000000e+00  -9.3637396015496185e-03 2.0469129275138646e-04 0.0000000000000000e+00  -9.5596074279634090e-03 4.7661257585536630e-05 0.0000000000000000e+00  -9.5000571168299772e-03 -1.1470361558136614e-04 0.0000000000000000e+00  -9.1806519427813926e-03 -2.7851435732671097e-04 0.0000000000000000e+00  -8.6034790500735918e-03 -4.3928782731521618e-04 0.0000000000000000e+00  -7.7779968412513669e-03 -5.9197066629329434e-04 0.0000000000000000e+00  -6.7216900970289324e-03 -7.3106436455744979e-04 0.0000000000000000e+00  -5.4606466629515474e-03 -8.5094279483111210e-04 0.0000000000000000e+00  -4.0291268438856854e-03 -9.4585083204090702e-04 0.0000000000000000e+00  -2.4756154273808547e-03 -1.0015083096121379e-03 0.0000000000000000e+00  -8.9275200810653413e-04 -8.9211391984224289e-04 0.0000000000000000e+00  0.0000000000000000e+00 0.0000000000000000e+00 0.0000000000000000e+00  0.0000000000000000e+00 0.0000000000000000e+00 0.0000000000000000e+00  -9.8174224699151933e-04 2.3045376294428856e-03 0.0000000000000000e+00  -2.6511016799492548e-03 2.5376652795996131e-03 0.0000000000000000e+00  -4.3063604842237830e-03 2.4178422021828342e-03 0.0000000000000000e+00  -5.8563552925384524e-03 2.2282802415337687e-03 0.0000000000000000e+00  -7.2589444700045368e-03 1.9823795289742696e-03 0.0000000000000000e+00  -8.4783901961026815e-03 1.6859227883870029e-03 0.0000000000000000e+00  -9.4835610056390705e-03 1.3448652079118184e-03 0.0000000000000000e+00  -1.0247707756384368e-02 9.6589381943375740e-04 0.0000000000000000e+00  -1.0748928220901706e-02 5.5634918119823321e-04 0.0000000000000000e+00  -1.0970447051694950e-02 1.2435097751724192e-04 0.0000000000000000e+00  -1.0901075339223819e-02 -3.2096570348155685e-04 0.0000000000000000e+00  -1.0535867183275035e-02 -7.6917951215655853e-04 0.0000000000000000e+00  -9.8769808096206835e-03 -1.2083818936721277e-03 0.0000000000000000e+00  -8.9347044209119441e-03 -1.6251737426539773e-03 0.0000000000000000e+00  -7.7282828884105807e-03 -2.0049801300229511e-03 0.0000000000000000e+00  -6.2871830437178098e-03 -2.3326594922710719e-03 0.0000000000000000e+00  -4.6499122425176613e-03 -2.5927110959839367e-03 0.0000000000000000e+00  -2.8706347506838007e-03 -2.7518660525353363e-03 0.0000000000000000e+00  -1.0607047146734315e-03 -2.5140573256411240e-03 0.0000000000000000e+00  0.0000000000000000e+00 0.0000000000000000e+00 0.0000000000000000e+00  0.0000000000000000e+00 0.0000000000000000e+00 0.0000000000000000e+00  -1.0292765730446670e-03 3.9056999441783083e-03 0.0000000000000000e+00  -2.7935141014715022e-03 4.2729010331260609e-03 0.0000000000000000e+00  -4.5407157337935510e-03 4.0711732077188039e-03 0.0000000000000000e+00  -6.1773377112935794e-03 3.7502019874980290e-03 0.0000000000000000e+00  -7.6587206410045150e-03 3.3344573579346423e-03 0.0000000000000000e+00  -8.9483526326800261e-03 2.8340698576860947e-03 0.0000000000000000e+00  -1.0013889589461819e-02 2.2595947614171856e-03 0.0000000000000000e+00  -1.0827742160119521e-02 1.6224276252328450e-03 0.0000000000000000e+00  -1.1367089242257232e-02 9.3480298533082787e-04 0.0000000000000000e+00  -1.1614003416305280e-02 2.1003806767168261e-04 0.0000000000000000e+00  -1.1555789815026019e-02 -5.3701614030868434e-04 0.0000000000000000e+00  -1.1185641351737637e-02 -1.2894203629732742e-03 0.0000000000000000e+00  -1.0503665147884934e-02 -2.0276767093960224e-03 0.0000000000000000e+00  -9.5182611834124711e-03 -2.7295786098993600e-03 0.0000000000000000e+00  -8.2474608943853781e-03 -3.3706050157002840e-03 0.0000000000000000e+00  -6.7207675657262921e-03 -3.9249119593335541e-03 0.0000000000000000e+00  -4.9780781436811784e-03 -4.3656021702896996e-03 0.0000000000000000e+00  -3.0776001895693739e-03 -4.6404963302604631e-03 0.0000000000000000e+00  -1.1381704570660640e-03 -4.2600530724232234e-03 0.0000000000000000e+00  0.0000000000000000e+00 0.0000000000000000e+00 0.0000000000000000e+00  0.0000000000000000e+00 0.0000000000000000e+00 0.0000000000000000e+00  -1.1041026801032843e-03 5.6034649755332408e-03 0.0000000000000000e+00  -2.9971916177089302e-03 6.1189543697969572e-03 0.0000000000000000e+00  -4.8723375953648894e-03 5.8305905565917051e-03 0.0000000000000000e+00  -6.6284260989150573e-03 5.3702855449356364e-03 0.0000000000000000e+00  -8.2183627744486093e-03 4.7749474365530115e-03 0.0000000000000000e+00  -9.6041966388976888e-03 4.0597607059054868e-03 0.0000000000000000e+00  -1.0752494109255517e-02 3.2400945461441679e-03 0.0000000000000000e+00  -1.1634876708756108e-02 2.3320815366639006e-03 0.0000000000000000e+00  -1.2227579675737860e-02 1.3526260298993933e-03 0.0000000000000000e+00  -1.2511270147211637e-02 3.1978248913572721e-04 0.0000000000000000e+00  -1.2471127774921216e-02 -7.4645667571358941e-04 0.0000000000000000e+00  -1.2097441148466254e-02 -1.8231326696296426e-03 0.0000000000000000e+00  -1.1386850170755407e-02 -2.8833384008769545e-03 0.0000000000000000e+00  -1.0344280016491696e-02 -3.8956710320030776e-03 0.0000000000000000e+00  -8.9850867392695447e-03 -4.8245340489442880e-03 0.0000000000000000e+00  -7.3380299720437019e-03 -5.6314720733653288e-03 0.0000000000000000e+00  -5.4447272984703317e-03 -6.2760037638915026e-03 0.0000000000000000e+00  -3.3695396223984526e-03 -6.6832719882007315e-03 0.0000000000000000e+00  -1.2458445995946769e-03 -6.1519420587559312e-03 0.0000000000000000e+00  0.0000000000000000e+00 0.0000000000000000e+00 0.0000000000000000e+00  0.0000000000000000e+00 0.0000000000000000e+00 0.0000000000000000e+00  -1.2073332752655451e-03 7.4445599530005230e-03 0.0000000000000000e+00  -3.2771856627704463e-03 8.1193473083428034e-03 0.0000000000000000e+00  -5.3267131265058287e-03 7.7358259892261402e-03 0.0000000000000000e+00  -7.2447832644086056e-03 7.1241171200196098e-03 0.0000000000000000e+00  -8.9812168740015901e-03 6.3350860105214884e-03 0.0000000000000000e+00  -1.0496179422864179e-02 5.3897140757014350e-03 0.0000000000000000e+00  -1.1755311655519879e-02 4.3086855473548659e-03 0.0000000000000000e+00  -1.2729728854031373e-02 3.1129804954166890e-03 0.0000000000000000e+00  -1.3394985539361474e-02 1.8237846093600318e-03 0.0000000000000000e+00  -1.3730299053635417e-02 4.6307279491625118e-04 0.0000000000000000e+00  -1.3718152017521924e-02 -9.4509668693871520e-04 0.0000000000000000e+00  -1.3344680860429715e-02 -2.3727924184509326e-03 0.0000000000000000e+00  -1.2601125680418700e-02 -3.7863199059834426e-03 0.0000000000000000e+00  -1.1486531987580340e-02 -5.1448300279428802e-03 0.0000000000000000e+00  -1.0011180067472782e-02 -6.4001501711848617e-03 0.0000000000000000e+00  -8.2014690580449173e-03 -7.4983517278008867e-03 0.0000000000000000e+00  -6.1006051013573065e-03 -8.3812680618287980e-03 0.0000000000000000e+00  -3.7817224062764504e-03 -8.9454966790375526e-03 0.0000000000000000e+00  -1.3987703157164282e-03 -8.2507940415705340e-03 0.0000000000000000e+00  0.0000000000000000e+00 0.0000000000000000e+00 0.0000000000000000e+00  0.0000000000000000e+00 0.0000000000000000e+00 0.0000000000000000e+00  -1.3422222849626500e-03 9.4755590788425485e-03 0.0000000000000000e+00  -3.6424292164075967e-03 1.0324255747510889e-02 0.0000000000000000e+00  -5.9174004310609037e-03 9.8340597651568103e-03 0.0000000000000000e+00  -8.0434953632532048e-03 9.0541415950538100e-03 0.0000000000000000e+00  -9.9665126068326070e-03 8.0518824317104571e-03 0.0000000000000000e+00  -1.1644712776990661e-02 6.8555755781230477e-03 0.0000000000000000e+00  -1.3043415846112462e-02 5.4921610133768714e-03 0.0000000000000000e+00  -1.4134143688643594e-02 3.9876649210475240e-03 0.0000000000000000e+00  -1.4892646458458326e-02 2.3669617676104352e-03 0.0000000000000000e+00  -1.5297143767136324e-02 6.5462004782947179e-04 0.0000000000000000e+00  -1.5327084693732240e-02 -1.1230892019018582e-03 0.0000000000000000e+00  -1.4963020584460505e-02 -2.9352463674561535e-03 0.0000000000000000e+00  -1.4188115650185558e-02 -4.7428862754245425e-03 0.0000000000000000e+00  -1.2991786905685908e-02 -6.4959972731834081e-03 0.0000000000000000e+00  -1.1375032198105942e-02 -8.1321093316178133e-03 0.0000000000000000e+00  -9.3584594450006938e-03 -9.5776322521101843e-03 0.0000000000000000e+00  -6.9855101281040806e-03 -1.0750235851406848e-02 0.0000000000000000e+00  -4.3405573076229298e-03 -1.1508705704614789e-02 0.0000000000000000e+00  -1.6069760981476254e-03 -1.0635573455796476e-02 0.0000000000000000e+00  0.0000000000000000e+00 0.0000000000000000e+00 0.0000000000000000e+00  0.0000000000000000e+00 0.0000000000000000e+00 0.0000000000000000e+00  -1.5134110015128561e-03 1.1750568535277166e-02 0.0000000000000000e+00  -4.1048521144572414e-03 1.2790242889236173e-02 0.0000000000000000e+00  -6.6624007767146229e-03 1.2176433999984200e-02 0.0000000000000000e+00  -9.0464729290941747e-03 1.1204704719392684e-02 0.0000000000000000e+00  -1.1197963263762691e-02 9.9627018809894732e-03 0.0000000000000000e+00  -1.3073736065724954e-02 8.4883988749389280e-03 0.0000000000000000e+00  -1.4640193627502957e-02 6.8165048569314652e-03 0.0000000000000000e+00  -1.5871163354993081e-02 4.9784828138567210e-03 0.0000000000000000e+00  -1.6744467873666687e-02 3.0020473450104801e-03 0.0000000000000000e+00  -1.7238653621901759e-02 9.1231708788771474e-04 0.0000000000000000e+00  -1.7330351884487682e-02 -1.2652404236350695e-03 0.0000000000000000e+00  -1.6993088153553989e-02 -3.5002464686173136e-03 0.0000000000000000e+00  -1.6198402533479622e-02 -5.7516884576919699e-03 0.0000000000000000e+00  -1.4920351089139959e-02 -7.9620376635396901e-03 0.0000000000000000e+00  -1.3143417218091070e-02 -1.0053057283605402e-02 0.0000000000000000e+00  -1.0875642800412129e-02 -1.1925756784525569e-02 0.0000000000000000e+00  -8.1568014838318045e-03 -1.3463588968680947e-02 0.0000000000000000e+00  -5.0849252490521987e-03 -1.4472789088792962e-02 0.0000000000000000e+00  -1.8853542912453461e-03 -1.3404720917972266e-02 0.0000000000000000e+00  0.0000000000000000e+00 0.0000000000000000e+00 0.0000000000000000e+00  0.0000000000000000e+00 0.0000000000000000e+00 0.0000000000000000e+00  -1.7277484002551750e-03 1.4332419744575548e-02 0.0000000000000000e+00  -4.6818807005293899e-03 1.5581812100217722e-02 0.0000000000000000e+00  -7.5872023571485646e-03 1.4819840040459470e-02 0.0000000000000000e+00  -1.0283794928757358e-02 1.3623230457520818e-02 0.0000000000000000e+00  -1.2706900939398717e-02 1.2105572801645665e-02 0.0000000000000000e+00  -1.4813287847321790e-02 1.0318320043082330e-02 0.0000000000000000e+00  -1.6573124284816967e-02 8.3063607481319076e-03 0.0000000000000000e+00  -1.7965938038128543e-02 6.1072816575082301e-03 0.0000000000000000e+00  -1.8975032494383808e-02 3.7504874231159930e-03 0.0000000000000000e+00  -1.9582022063555783e-02 1.2586911193624962e-03 0.0000000000000000e+00  -1.9762074789737287e-02 -1.3480721190861848e-03 0.0000000000000000e+00  -1.9480767264188556e-02 -4.0458970615497442e-03 0.0000000000000000e+00  -1.8693679148443935e-02 -6.7979223364078266e-03 0.0000000000000000e+00  -1.7351078558319157e-02 -9.5435570079016596e-03 0.0000000000000000e+00  -1.5408911503606338e-02 -1.2188871696796204e-02 0.0000000000000000e+00  -1.2849822348336676e-02 -1.4602533140349844e-02 0.0000000000000000e+00  -9.7006215270121540e-03 -1.6618372832217444e-02 0.0000000000000000e+00  -6.0742329200999465e-03 -1.7965568097359164e-02 0.0000000000000000e+00  -2.2566931650975525e-03 -1.6686280499852726e-02 0.0000000000000000e+00  0.0000000000000000e+00 0.0000000000000000e+00 0.0000000000000000e+00  0.0000000000000000e+00 0.0000000000000000e+00 0.0000000000000000e+00  -1.9955759589939262e-03 1.7297015550273784e-02 0.0000000000000000e+00  -5.3991744924732866e-03 1.8774938708640356e-02 0.0000000000000000e+00  -8.7283969687329439e-03 1.7828416770850744e-02 0.0000000000000000e+00  -1.1797286998972705e-02 1.6359764612119538e-02 0.0000000000000000e+00  -1.4535009330749330e-02 1.4517254793261847e-02 0.0000000000000000e+00  -1.6900944163555972e-02 1.2371739970174012e-02 0.0000000000000000e+00  -1.8873712107375588e-02 9.9819339672788544e-03 0.0000000000000000e+00  -2.0444121885162633e-02 7.3926299692148789e-03 0.0000000000000000e+00  -2.1606538779893436e-02 4.6334537396435574e-03 0.0000000000000000e+00  -2.2350549185468981e-02 1.7206993679075861e-03 0.0000000000000000e+00  -2.2653354507453063e-02 -1.3377239175391916e-03 0.0000000000000000e+00  -2.2473086118427882e-02 -4.5335445068796021e-03 0.0000000000000000e+00  -2.1744881755669559e-02 -7.8446367407737395e-03 0.0000000000000000e+00  -2.0384324480293630e-02 -1.1217571628465154e-02 0.0000000000000000e+00  -1.8299847946541905e-02 -1.4548742353516371e-02 0.0000000000000000e+00  -1.5424132726020591e-02 -1.7668156407685976e-02 0.0000000000000000e+00  -1.1749375488907194e-02 -2.0334729425961269e-02 0.0000000000000000e+00  -7.4011240768311884e-03 -2.2157088774472908e-02 0.0000000000000000e+00  -2.7562416198293198e-03 -2.0653233900645242e-02 0.0000000000000000e+00  0.0000000000000000e+00 0.0000000000000000e+00 0.0000000000000000e+00  0.0000000000000000e+00 0.0000000000000000e+00 0.0000000000000000e+00  -2.3329119636825908e-03 2.0739886364073080e-02 0.0000000000000000e+00  -6.2954455314510474e-03 2.2461851521023021e-02 0.0000000000000000e+00  -1.0139660405639288e-02 2.1275469179143889e-02 0.0000000000000000e+00  -1.3646094176895872e-02 1.9466100752310166e-02 0.0000000000000000e+00  -1.6738388965200759e-02 1.7230219338661690e-02 0.0000000000000000e+00  -1.9383814556225731e-02 1.4667070111770505e-02 0.0000000000000000e+00  -2.1577264390602657e-02 1.1854363839660516e-02 0.0000000000000000e+00  -2.3329449999624271e-02 8.8455340888356736e-03 0.0000000000000000e+00  -2.4654230861052527e-02 5.6685483866727457e-03 0.0000000000000000e+00  -2.5557129502259340e-02 2.3281768257998317e-03 0.0000000000000000e+00  -2.6023894761688510e-02 -1.1881975107384780e-03 0.0000000000000000e+00  -2.6008493644376462e-02 -4.8998577403770571e-03 0.0000000000000000e+00  -2.5425383573311870e-02 -8.8176237506475443e-03 0.0000000000000000e+00  -2.4144670988542494e-02 -1.2920366306268272e-02 0.0000000000000000e+00  -2.1995521633274180e-02 -1.7113107955751182e-02 0.0000000000000000e+00  -1.8813097386228151e-02 -2.1178088738483099e-02 0.0000000000000000e+00  -1.4510160642643606e-02 -2.4758345254073496e-02 0.0000000000000000e+00  -9.2153427401072269e-03 -2.7275110506154318e-02 0.0000000000000000e+00  -3.4436784650450835e-03 -2.5551100270925050e-02 0.0000000000000000e+00  0.0000000000000000e+00 0.0000000000000000e+00 0.0000000000000000e+00  0.0000000000000000e+00 0.0000000000000000e+00 0.0000000000000000e+00  -2.7654629161406783e-03 2.4786903865760646e-02 0.0000000000000000e+00  -7.4308875644683147e-03 2.6758314107480790e-02 0.0000000000000000e+00  -1.1901701146116238e-02 2.5245644532085325e-02 0.0000000000000000e+00  -1.5915486629943517e-02 2.2993311281452024e-02 0.0000000000000000e+00  -1.9393602991249557e-02 2.0267071189668785e-02 0.0000000000000000e+00  -2.2321332192567534e-02 1.7207706809461272e-02 0.0000000000000000e+00  -2.4722599981918544e-02 1.3918454647712214e-02 0.0000000000000000e+00  -2.6640647518870398e-02 1.0462574513463727e-02 0.0000000000000000e+00  -2.8120606370877137e-02 6.8637432298175836e-03 0.0000000000000000e+00  -2.9195032727707987e-02 3.1098870287984150e-03 0.0000000000000000e+00  -2.9867741295635811e-02 -8.4021097896168806e-04 0.0000000000000000e+00  -3.0101805491030427e-02 -5.0513355360994249e-03 0.0000000000000000e+00  -2.9803819892151497e-02 -9.6035662333978158e-03 0.0000000000000000e+00  -2.8776972949459512e-02 -1.4542504621734278e-02 0.0000000000000000e+00  -2.6729464252017249e-02 -1.9792589538321886e-02 0.0000000000000000e+00  -2.3334225103753988e-02 -2.5108627090553982e-02 0.0000000000000000e+00  -1.8329160720207290e-02 -3.0022511650666203e-02 0.0000000000000000e+00  -1.1782441108112749e-02 -3.3657125940373643e-02 0.0000000000000000e+00  -4.4240919401062522e-03 -3.1783672771865161e-02 0.0000000000000000e+00  0.0000000000000000e+00 0.0000000000000000e+00 0.0000000000000000e+00  0.0000000000000000e+00 0.0000000000000000e+00 0.0000000000000000e+00  -3.3362531466293080e-03 2.9612333296900009e-02 0.0000000000000000e+00  -8.9022934771660969e-03 3.1814615952401724e-02 0.0000000000000000e+00  -1.4139018648429459e-02 2.9836712924093248e-02 0.0000000000000000e+00  -1.8730539318679493e-02 2.6986020194260010e-02 0.0000000000000000e+00  -2.2606098178349441e-02 2.3630751151511243e-02 0.0000000000000000e+00  -2.5788540004328522e-02 1.9971126360991433e-02 0.0000000000000000e+00  -2.8351349379465034e-02 1.6142216536001099e-02 0.0000000000000000e+00  -3.0387773792559639e-02 1.2216180798126666e-02 0.0000000000000000e+00  -3.1988671217653815e-02 8.2084511336535312e-03 0.0000000000000000e+00  -3.3225479511694661e-02 4.0856235393688916e-03 0.0000000000000000e+00  -3.4136652777468537e-02 -2.3209163402612920e-04 0.0000000000000000e+00  -3.4728250754889257e-02 -4.8779986772960584e-03 0.0000000000000000e+00  -3.4894188002747024e-02 -9.9984473057515341e-03 0.0000000000000000e+00  -3.4362265237389528e-02 -1.5698757025319775e-02 0.0000000000000000e+00  -3.2795876530351022e-02 -2.2103320038226536e-02 0.0000000000000000e+00  -2.9549000489083915e-02 -2.9267825533686065e-02 0.0000000000000000e+00  -2.3864627628518206e-02 -3.6490289531826758e-02 0.0000000000000000e+00  -1.5540834457496586e-02 -4.2032457148523987e-02 0.0000000000000000e+00  -5.8163296666955020e-03 -3.9945756251740343e-02 0.0000000000000000e+00  0.0000000000000000e+00 0.0000000000000000e+00 0.0000000000000000e+00  0.0000000000000000e+00 0.0000000000000000e+00 0.0000000000000000e+00  -4.1209417225682582e-03 3.5470098032756817e-02 0.0000000000000000e+00  -1.0870985956111060e-02 3.7832378587316175e-02 0.0000000000000000e+00  -1.7048550685971185e-02 3.5158660230167178e-02 0.0000000000000000e+00  -2.2276760192238957e-02 3.1469604135334367e-02 0.0000000000000000e+00  -2.6520587608148450e-02 2.7287383742881508e-02 0.0000000000000000e+00  -2.9878474517067880