<?xml version="1.0"?>
<VTKFile type="UnstructuredGrid"  version="0.1"  >
<UnstructuredGrid>
<Piece  NumberOfPoints="441" NumberOfCells="800">
<Points>
<DataArray  type="Float64"  NumberOfComponents="3"  format="ascii">0 0 0  0.05 0 0  0.1 0 0  0.15 0 0  0.2 0 0  0.25 0 0  0.3 0 0  0.35 0 0  0.4 0 0  0.45 0 0  0.5 0 0  0.55 0 0  0.6 0 0  0.65 0 0  0.7 0 0  0.75 0 0  0.8 0 0  0.85 0 0  0.9 0 0  0.95 0 0  1 0 0  0 0.05 0  0.05 0.05 0  0.1 0.05 0  0.15 0.05 0  0.2 0.05 0  0.25 0.05 0  0.3 0.05 0  0.35 0.05 0  0.4 0.05 0  0.45 0.05 0  0.5 0.05 0  0.55 0.05 0  0.6 0.05 0  0.65 0.05 0  0.7 0.05 0  0.75 0.05 0  0.8 0.05 0  0.85 0.05 0  0.9 0.05 0  0.95 0.05 0  1 0.05 0  0 0.1 0  0.05 0.1 0  0.1 0.1 0  0.15 0.1 0  0.2 0.1 0  0.25 0.1 0  0.3 0.1 0  0.35 0.1 0  0.4 0.1 0  0.45 0.1 0  0.5 0.1 0  0.55 0.1 0  0.6 0.1 0  0.65 0.1 0  0.7 0.1 0  0.75 0.1 0  0.8 0.1 0  0.85 0.1 0  0.9 0.1 0  0.95 0.1 0  1 0.1 0  0 0.15 0  0.05 0.15 0  0.1 0.15 0  0.15 0.15 0  0.2 0.15 0  0.25 0.15 0  0.3 0.15 0  0.35 0.15 0  0.4 0.15 0  0.45 0.15 0  0.5 0.15 0  0.55 0.15 0  0.6 0.15 0  0.65 0.15 0  0.7 0.15 0  0.75 0.15 0  0.8 0.15 0  0.85 0.15 0  0.9 0.15 0  0.95 0.15 0  1 0.15 0  0 0.2 0  0.05 0.2 0  0.1 0.2 0  0.15 0.2 0  0.2 0.2 0  0.25 0.2 0  0.3 0.2 0  0.35 0.2 0  0.4 0.2 0  0.45 0.2 0  0.5 0.2 0  0.55 0.2 0  0.6 0.2 0  0.65 0.2 0  0.7 0.2 0  0.75 0.2 0  0.8 0.2 0  0.85 0.2 0  0.9 0.2 0  0.95 0.2 0  1 0.2 0  0 0.25 0  0.05 0.25 0  0.1 0.25 0  0.15 0.25 0  0.2 0.25 0  0.25 0.25 0  0.3 0.25 0  0.35 0.25 0  0.4 0.25 0  0.45 0.25 0  0.5 0.25 0  0.55 0.25 0  0.6 0.25 0  0.65 0.25 0  0.7 0.25 0  0.75 0.25 0  0.8 0.25 0  0.85 0.25 0  0.9 0.25 0  0.95 0.25 0  1 0.25 0  0 0.3 0  0.05 0.3 0  0.1 0.3 0  0.15 0.3 0  0.2 0.3 0  0.25 0.3 0  0.3 0.3 0  0.35 0.3 0  0.4 0.3 0  0.45 0.3 0  0.5 0.3 0  0.55 0.3 0  0.6 0.3 0  0.65 0.3 0  0.7 0.3 0  0.75 0.3 0  0.8 0.3 0  0.85 0.3 0  0.9 0.3 0  0.95 0.3 0  1 0.3 0  0 0.35 0  0.05 0.35 0  0.1 0.35 0  0.15 0.35 0  0.2 0.35 0  0.25 0.35 0  0.3 0.35 0  0.35 0.35 0  0.4 0.35 0  0.45 0.35 0  0.5 0.35 0  0.55 0.35 0  0.6 0.35 0  0.65 0.35 0  0.7 0.35 0  0.75 0.35 0  0.8 0.35 0  0.85 0.35 0  0.9 0.35 0  0.95 0.35 0  1 0.35 0  0 0.4 0  0.05 0.4 0  0.1 0.4 0  0.15 0.4 0  0.2 0.4 0  0.25 0.4 0  0.3 0.4 0  0.35 0.4 0  0.4 0.4 0  0.45 0.4 0  0.5 0.4 0  0.55 0.4 0  0.6 0.4 0  0.65 0.4 0  0.7 0.4 0  0.75 0.4 0  0.8 0.4 0  0.85 0.4 0  0.9 0.4 0  0.95 0.4 0  1 0.4 0  0 0.45 0  0.05 0.45 0  0.1 0.45 0  0.15 0.45 0  0.2 0.45 0  0.25 0.45 0  0.3 0.45 0  0.35 0.45 0  0.4 0.45 0  0.45 0.45 0  0.5 0.45 0  0.55 0.45 0  0.6 0.45 0  0.65 0.45 0  0.7 0.45 0  0.75 0.45 0  0.8 0.45 0  0.85 0.45 0  0.9 0.45 0  0.95 0.45 0  1 0.45 0  0 0.5 0  0.05 0.5 0  0.1 0.5 0  0.15 0.5 0  0.2 0.5 0  0.25 0.5 0  0.3 0.5 0  0.35 0.5 0  0.4 0.5 0  0.45 0.5 0  0.5 0.5 0  0.55 0.5 0  0.6 0.5 0  0.65 0.5 0  0.7 0.5 0  0.75 0.5 0  0.8 0.5 0  0.85 0.5 0  0.9 0.5 0  0.95 0.5 0  1 0.5 0  0 0.55 0  0.05 0.55 0  0.1 0.55 0  0.15 0.55 0  0.2 0.55 0  0.25 0.55 0  0.3 0.55 0  0.35 0.55 0  0.4 0.55 0  0.45 0.55 0  0.5 0.55 0  0.55 0.55 0  0.6 0.55 0  0.65 0.55 0  0.7 0.55 0  0.75 0.55 0  0.8 0.55 0  0.85 0.55 0  0.9 0.55 0  0.95 0.55 0  1 0.55 0  0 0.6 0  0.05 0.6 0  0.1 0.6 0  0.15 0.6 0  0.2 0.6 0  0.25 0.6 0  0.3 0.6 0  0.35 0.6 0  0.4 0.6 0  0.45 0.6 0  0.5 0.6 0  0.55 0.6 0  0.6 0.6 0  0.65 0.6 0  0.7 0.6 0  0.75 0.6 0  0.8 0.6 0  0.85 0.6 0  0.9 0.6 0  0.95 0.6 0  1 0.6 0  0 0.65 0  0.05 0.65 0  0.1 0.65 0  0.15 0.65 0  0.2 0.65 0  0.25 0.65 0  0.3 0.65 0  0.35 0.65 0  0.4 0.65 0  0.45 0.65 0  0.5 0.65 0  0.55 0.65 0  0.6 0.65 0  0.65 0.65 0  0.7 0.65 0  0.75 0.65 0  0.8 0.65 0  0.85 0.65 0  0.9 0.65 0  0.95 0.65 0  1 0.65 0  0 0.7 0  0.05 0.7 0  0.1 0.7 0  0.15 0.7 0  0.2 0.7 0  0.25 0.7 0  0.3 0.7 0  0.35 0.7 0  0.4 0.7 0  0.45 0.7 0  0.5 0.7 0  0.55 0.7 0  0.6 0.7 0  0.65 0.7 0  0.7 0.7 0  0.75 0.7 0  0.8 0.7 0  0.85 0.7 0  0.9 0.7 0  0.95 0.7 0  1 0.7 0  0 0.75 0  0.05 0.75 0  0.1 0.75 0  0.15 0.75 0  0.2 0.75 0  0.25 0.75 0  0.3 0.75 0  0.35 0.75 0  0.4 0.75 0  0.45 0.75 0  0.5 0.75 0  0.55 0.75 0  0.6 0.75 0  0.65 0.75 0  0.7 0.75 0  0.75 0.75 0  0.8 0.75 0  0.85 0.75 0  0.9 0.75 0  0.95 0.75 0  1 0.75 0  0 0.8 0  0.05 0.8 0  0.1 0.8 0  0.15 0.8 0  0.2 0.8 0  0.25 0.8 0  0.3 0.8 0  0.35 0.8 0  0.4 0.8 0  0.45 0.8 0  0.5 0.8 0  0.55 0.8 0  0.6 0.8 0  0.65 0.8 0  0.7 0.8 0  0.75 0.8 0  0.8 0.8 0  0.85 0.8 0  0.9 0.8 0  0.95 0.8 0  1 0.8 0  0 0.85 0  0.05 0.85 0  0.1 0.85 0  0.15 0.85 0  0.2 0.85 0  0.25 0.85 0  0.3 0.85 0  0.35 0.85 0  0.4 0.85 0  0.45 0.85 0  0.5 0.85 0  0.55 0.85 0  0.6 0.85 0  0.65 0.85 0  0.7 0.85 0  0.75 0.85 0  0.8 0.85 0  0.85 0.85 0  0.9 0.85 0  0.95 0.85 0  1 0.85 0  0 0.9 0  0.05 0.9 0  0.1 0.9 0  0.15 0.9 0  0.2 0.9 0  0.25 0.9 0  0.3 0.9 0  0.35 0.9 0  0.4 0.9 0  0.45 0.9 0  0.5 0.9 0  0.55 0.9 0  0.6 0.9 0  0.65 0.9 0  0.7 0.9 0  0.75 0.9 0  0.8 0.9 0  0.85 0.9 0  0.9 0.9 0  0.95 0.9 0  1 0.9 0  0 0.95 0  0.05 0.95 0  0.1 0.95 0  0.15 0.95 0  0.2 0.95 0  0.25 0.95 0  0.3 0.95 0  0.35 0.95 0  0.4 0.95 0  0.45 0.95 0  0.5 0.95 0  0.55 0.95 0  0.6 0.95 0  0.65 0.95 0  0.7 0.95 0  0.75 0.95 0  0.8 0.95 0  0.85 0.95 0  0.9 0.95 0  0.95 0.95 0  1 0.95 0  0 1 0  0.05 1 0  0.1 1 0  0.15 1 0  0.2 1 0  0.25 1 0  0.3 1 0  0.35 1 0  0.4 1 0  0.45 1 0  0.5 1 0  0.55 1 0  0.6 1 0  0.65 1 0  0.7 1 0  0.75 1 0  0.8 1 0  0.85 1 0  0.9 1 0  0.95 1 0  1 1 0  </DataArray>
</Points>
<Cells>
[...]
<PointData  Vectors="f_137"> 
<DataArray  type="Float64"  Name="f_137"  NumberOfComponents="3" format="ascii">0.0000000000000000e+00 0.0000000000000000e+00 0.0000000000000000e+00  0.0000000000000000e+00 0.0000000000000000e+00 0.0000000000000000e+00  0.0000000000000000e+00 0.0000000000000000e+00 0.0000000000000000e+00  0.0000000000000000e+00 0.0000000000000000e+00 0.0000000000000000e+00  0.0000000000000000e+00 0.0000000000000000e+00 0.0000000000000000e+00  0.0000000000000000e+00 0.0000000000000000e+00 0.0000000000000000e+00  0.0000000000000000e+00 0.0000000000000000e+00 0.0000000000000000e+00  0.0000000000000000e+00 0.0000000000000000e+00 0.0000000000000000e+00  0.0000000000000000e+00 0.0000000000000000e+00 0.0000000000000000e+00  0.0000000000000000e+00 0.0000000000000000e+00 0.0000000000000000e+00  0.0000000000000000e+00 0.0000000000000000e+00 0.0000000000000000e+00  0.0000000000000000e+00 0.0000000000000000e+00 0.0000000000000000e+00  0.0000000000000000e+00 0.0000000000000000e+00 0.0000000000000000e+00  0.0000000000000000e+00 0.0000000000000000e+00 0.0000000000000000e+00  0.0000000000000000e+00 0.0000000000000000e+00 0.0000000000000000e+00  0.0000000000000000e+00 0.0000000000000000e+00 0.0000000000000000e+00  0.0000000000000000e+00 0.0000000000000000e+00 0.0000000000000000e+00  0.0000000000000000e+00 0.0000000000000000e+00 0.0000000000000000e+00  0.0000000000000000e+00 0.0000000000000000e+00 0.0000000000000000e+00  0.0000000000000000e+00 0.0000000000000000e+00 0.0000000000000000e+00  0.0000000000000000e+00 0.0000000000000000e+00 0.0000000000000000e+00  0.0000000000000000e+00 0.0000000000000000e+00 0.0000000000000000e+00  -8.2828455424773786e-04 8.2051013802233400e-04 0.0000000000000000e+00  -2.2837168726228428e-03 9.2466382075789355e-04 0.0000000000000000e+00  -3.7431502540328232e-03 8.7798499043796857e-04 0.0000000000000000e+00  -5.1068469616323093e-03 8.1064777944817436e-04 0.0000000000000000e+00  -6.3438763739571960e-03 7.2301180285435219e-04 0.0000000000000000e+00  -7.4217261271278343e-03 6.1682356492340587e-04 0.0000000000000000e+00  -8.3124895111734917e-03 4.9402922560430585e-04 0.0000000000000000e+00  -8.9918191428208904e-03 3.5685219335798322e-04 0.0000000000000000e+00  -9.4394781899764628e-03 2.0783607868640018e-04 0.0000000000000000e+00  -9.6397973890907443e-03 4.9886236007940570e-05 0.0000000000000000e+00  -9.5822155771359829e-03 -1.1363508418987596e-04 0.0000000000000000e+00  -9.2619700336526722e-03 -2.7880917301337021e-04 0.0000000000000000e+00  -8.6809095149452294e-03 -4.4109557958396152e-04 0.0000000000000000e+00  -7.8483844670329157e-03 -5.9535661643659666e-04 0.0000000000000000e+00  -6.7819357577596513e-03 -7.3598737426095221e-04 0.0000000000000000e+00  -5.5079061312285323e-03 -8.5723739888646255e-04 0.0000000000000000e+00  -4.0610255576474675e-03 -9.5318419917429548e-04 0.0000000000000000e+00  -2.4906106436333258e-03 -1.0090527830154353e-03 0.0000000000000000e+00  -8.9429552654563633e-04 -8.9377955617744452e-04 0.0000000000000000e+00  0.0000000000000000e+00 0.0000000000000000e+00 0.0000000000000000e+00  0.0000000000000000e+00 0.0000000000000000e+00 0.0000000000000000e+00  -9.8591273646075721e-04 2.3106531480846294e-03 0.0000000000000000e+00  -2.6726007641984907e-03 2.5586461566338915e-03 0.0000000000000000e+00  -4.3487759628847303e-03 2.4395503543444279e-03 0.0000000000000000e+00  -5.9189890772826242e-03 2.2493731977388776e-03 0.0000000000000000e+00  -7.3405742400765601e-03 2.0023610252596397e-03 0.0000000000000000e+00  -8.5772652829033385e-03 1.7042783984738382e-03 0.0000000000000000e+00  -9.5974601445404598e-03 1.3610086314740284e-03 0.0000000000000000e+00  -1.0373921921925745e-02 9.7918433283767769e-04 0.0000000000000000e+00  -1.0884266034647013e-02 5.6611526733943603e-04 0.0000000000000000e+00  -1.1111254357854358e-02 1.2992640503329487e-04 0.0000000000000000e+00  -1.1043280044111608e-02 -3.2019214115292270e-04 0.0000000000000000e+00  -1.0675058344590973e-02 -7.7370160241727363e-04 0.0000000000000000e+00  -1.0008529271691177e-02 -1.2185049466473662e-03 0.0000000000000000e+00  -9.0539329298637995e-03 -1.6409428928487145e-03 0.0000000000000000e+00  -7.8306758417974673e-03 -2.0261210148390199e-03 0.0000000000000000e+00  -6.3686344394053331e-03 -2.3585370901681229e-03 0.0000000000000000e+00  -4.7070550650665710e-03 -2.6221902977501634e-03 0.0000000000000000e+00  -2.9011632847551188e-03 -2.7825793154907658e-03 0.0000000000000000e+00  -1.0679309101848538e-03 -2.5291100561529003e-03 0.0000000000000000e+00  0.0000000000000000e+00 0.0000000000000000e+00 0.0000000000000000e+00  0.0000000000000000e+00 0.0000000000000000e+00 0.0000000000000000e+00  -1.0336494905631402e-03 3.9241942380959256e-03 0.0000000000000000e+00  -2.8163956446427833e-03 4.3153369154740936e-03 0.0000000000000000e+00  -4.5857235421895267e-03 4.1143405115273224e-03 0.0000000000000000e+00  -6.2437965573551926e-03 3.7917673239257869e-03 0.0000000000000000e+00  -7.7453891511863110e-03 3.3733878650786349e-03 0.0000000000000000e+00  -9.0534763909128017e-03 2.8693587391550933e-03 0.0000000000000000e+00  -1.0135218570179017e-02 2.2901566995373389e-03 0.0000000000000000e+00  -1.0962511701663007e-02 1.6471173084024176e-03 0.0000000000000000e+00  -1.1512012435103525e-02 9.5244916749595457e-04 0.0000000000000000e+00  -1.1765275660592522e-02 2.1949939989390757e-04 0.0000000000000000e+00  -1.1709117674762407e-02 -5.3677170194707340e-04 0.0000000000000000e+00  -1.1336307721874453e-02 -1.2992126562997633e-03 0.0000000000000000e+00  -1.0646643056203864e-02 -2.0479922806404894e-03 0.0000000000000000e+00  -9.6483905405410197e-03 -2.7604443927374831e-03 0.0000000000000000e+00  -8.3596820973143547e-03 -3.4114784137446352e-03 0.0000000000000000e+00  -6.8104179296251182e-03 -3.9746003419634775e-03 0.0000000000000000e+00  -5.0412700777834529e-03 -4.4220492989890392e-03 0.0000000000000000e+00  -3.1115610618692225e-03 -4.6994805190304001e-03 0.0000000000000000e+00  -1.1464207421880313e-03 -4.2931008587860460e-03 0.0000000000000000e+00  0.0000000000000000e+00 0.0000000000000000e+00 0.0000000000000000e+00  0.0000000000000000e+00 0.0000000000000000e+00 0.0000000000000000e+00  -1.1083536912215660e-03 5.6345284910765837e-03 0.0000000000000000e+00  -3.0207264248799381e-03 6.1837357440247907e-03 0.0000000000000000e+00  -4.9191196158249835e-03 5.8961829942200351e-03 0.0000000000000000e+00  -6.6978405109174421e-03 5.4333303119564278e-03 0.0000000000000000e+00  -8.3092427179357661e-03 4.8338922263652714e-03 0.0000000000000000e+00  -9.7148732234613941e-03 4.1131056162185898e-03 0.0000000000000000e+00  -1.0880790202161780e-02 3.2862396982795607e-03 0.0000000000000000e+00  -1.1778073614663979e-02 2.3693431847416017e-03 0.0000000000000000e+00  -1.2382384834531033e-02 1.3792790866760656e-03 0.0000000000000000e+00  -1.2673794593178347e-02 3.3413274872063563e-04 0.0000000000000000e+00  -1.2636884043969643e-02 -7.4596388000543223e-04 0.0000000000000000e+00  -1.2261378946294029e-02 -1.8377641976080352e-03 0.0000000000000000e+00  -1.1543449950377446e-02 -2.9138896729640810e-03 0.0000000000000000e+00  -1.0487730972019103e-02 -3.9422638156609438e-03 0.0000000000000000e+00  -9.1095512169352393e-03 -4.8864289896250754e-03 0.0000000000000000e+00  -7.4380083409966392e-03 -5.7069247319343078e-03 0.0000000000000000e+00  -5.5155375542064932e-03 -6.3619528285524694e-03 0.0000000000000000e+00  -3.4077911513490937e-03 -6.7734569224490032e-03 0.0000000000000000e+00  -1.2552673849791345e-03 -6.2050274213970762e-03 0.0000000000000000e+00  0.0000000000000000e+00 0.0000000000000000e+00 0.0000000000000000e+00  0.0000000000000000e+00 0.0000000000000000e+00 0.0000000000000000e+00  -1.2114850797711350e-03 7.4886054643670289e-03 0.0000000000000000e+00  -3.3016502019334358e-03 8.2077174586587618e-03 0.0000000000000000e+00  -5.3758932762633721e-03 7.8251878149509652e-03 0.0000000000000000e+00  -7.3181660283079776e-03 7.2100724283637643e-03 0.0000000000000000e+00  -9.0777500224675962e-03 6.4155767647119492e-03 0.0000000000000000e+00  -1.0614317090827333e-02 5.4627483410203508e-03 0.0000000000000000e+00  -1.1892992990224527e-02 4.3721296826312135e-03 0.0000000000000000e+00  -1.2884322605145056e-02 3.1645708791489323e-03 0.0000000000000000e+00  -1.3563227323063722e-02 1.8611710165207995e-03 0.0000000000000000e+00  -1.3908229650812152e-02 4.8390026580232589e-04 0.0000000000000000e+00  -1.3901067080199711e-02 -9.4305392688802132e-04 0.0000000000000000e+00  -1.3527114906372692e-02 -2.3914339660398775e-03 0.0000000000000000e+00  -1.2776901991906642e-02 -3.8269567225240443e-03 0.0000000000000000e+00  -1.1648925836697912e-02 -5.2078738966660071e-03 0.0000000000000000e+00  -1.0153215713127007e-02 -6.4848025584210668e-03 0.0000000000000000e+00  -8.3163856978586900e-03 -7.6023469312792259e-03 0.0000000000000000e+00  -6.1825073022281993e-03 -8.5004172888834256e-03 0.0000000000000000e+00  -3.8262662085889994e-03 -9.0711185478278868e-03 0.0000000000000000e+00  -1.4099478541913771e-03 -8.3268497309839304e-03 0.0000000000000000e+00  0.0000000000000000e+00 0.0000000000000000e+00 0.0000000000000000e+00  0.0000000000000000e+00 0.0000000000000000e+00 0.0000000000000000e+00  -1.3462459311015269e-03 9.5331051805089446e-03 0.0000000000000000e+00  -3.6680834954255499e-03 1.0437770903734168e-02 0.0000000000000000e+00  -5.9696278856088657e-03 9.9489053431646938e-03 0.0000000000000000e+00  -8.1219170595719821e-03 9.1648521340323679e-03 0.0000000000000000e+00  -1.0070233440476986e-02 8.1559067033687323e-03 0.0000000000000000e+00  -1.1772358180810712e-02 6.9504347112036126e-03 0.0000000000000000e+00  -1.3193097650246554e-02 5.5751743021667053e-03 0.0000000000000000e+00  -1.4303380622642957e-02 4.0559479637328599e-03 0.0000000000000000e+00  -1.5078266462785372e-02 2.4174595412927075e-03 0.0000000000000000e+00  -1.5495171367718431e-02 6.8418498736138829e-04 0.0000000000000000e+00  -1.5532620804611923e-02 -1.1175504522717538e-03 0.0000000000000000e+00  -1.5170140631302348e-02 -2.9565306167239850e-03 0.0000000000000000e+00  -1.4389832838241169e-02 -4.7931365875725678e-03 0.0000000000000000e+00  -1.3180161973633494e-02 -6.5762399597387965e-03 0.0000000000000000e+00  -1.1541487088921717e-02 -8.2417436955342527e-03 0.0000000000000000e+00  -9.4943782192971841e-03 -9.7139658012307343e-03 0.0000000000000000e+00  -7.0831560995782659e-03 -1.0907787412508361e-02 0.0000000000000000e+00  -4.3941136690336322e-03 -1.1675806458658552e-02 0.0000000000000000e+00  -1.6207109090284942e-03 -1.0738906594255021e-02 0.0000000000000000e+00  0.0000000000000000e+00 0.0000000000000000e+00 0.0000000000000000e+00  0.0000000000000000e+00 0.0000000000000000e+00 0.0000000000000000e+00  -1.5172255955468947e-03 1.1822239217734636e-02 0.0000000000000000e+00  -4.1318540833410727e-03 1.2930825785425428e-02 0.0000000000000000e+00  -6.7181928614822835e-03 1.2318875037791166e-02 0.0000000000000000e+00  -9.1308483453197593e-03 1.1342449307759616e-02 0.0000000000000000e+00  -1.1310233906079666e-02 1.0092731356241882e-02 0.0000000000000000e+00  -1.3212762757319944e-02 8.6077643886142176e-03 0.0000000000000000e+00  -1.4804340162369013e-02 6.9219770981237541e-03 0.0000000000000000e+00  -1.6058195197381855e-02 5.0665267094633284e-03 0.0000000000000000e+00  -1.6951419754246133e-02 3.0688287706881192e-03 0.0000000000000000e+00  -1.7461658063872603e-02 9.5375335612174982e-04 0.0000000000000000e+00  -1.7564423886202104e-02 -1.2533478115963554e-03 0.0000000000000000e+00  -1.7231890160330318e-02 -3.5219455327693524e-03 0.0000000000000000e+00  -1.6434049060587565e-02 -5.8104257227810296e-03 0.0000000000000000e+00  -1.5143378679537722e-02 -8.0599921908708801e-03 0.0000000000000000e+00  -1.3343048835704394e-02 -1.0190302382215532e-02 0.0000000000000000e+00  -1.1040547398997461e-02 -1.2099403181353274e-02 0.0000000000000000e+00  -8.2764335981054746e-03 -1.3666669987647873e-02 0.0000000000000000e+00  -5.1511741232254183e-03 -1.4689828029792087e-02 0.0000000000000000e+00  -1.9027422046567996e-03 -1.3541449521136709e-02 0.0000000000000000e+00  0.0000000000000000e+00 0.0000000000000000e+00 0.0000000000000000e+00  0.0000000000000000e+00 0.0000000000000000e+00 0.0000000000000000e+00  -1.7312070407121663e-03 1.4418875353665843e-02 0.0000000000000000e+00  -4.7102672034885903e-03 1.5751694725459071e-02 0.0000000000000000e+00  -7.6469109892933372e-03 1.4992340603226276e-02 0.0000000000000000e+00  -1.0374831946773074e-02 1.3790691008513614e-02 0.0000000000000000e+00  -1.2828845392419790e-02 1.2264545905393649e-02 0.0000000000000000e+00  -1.4965313663097172e-02 1.0465420084199662e-02 0.0000000000000000e+00  -1.6753946673856494e-02 8.4378294828286338e-03 0.0000000000000000e+00  -1.8173699628229123e-02 6.2189301906695896e-03 0.0000000000000000e+00  -1.9207146792044254e-02 3.8376569899601269e-03 0.0000000000000000e+00  -1.9834944086503204e-02 1.3162427648647176e-03 0.0000000000000000e+00  -2.0030975119345519e-02 -1.3256911884003335e-03 0.0000000000000000e+00  -1.9759116862864825e-02 -4.0644363229413588e-03 0.0000000000000000e+00  -1.8972766741199576e-02 -6.8628288700898002e-03 0.0000000000000000e+00  -1.7619654869191603e-02 -9.6590305977990194e-03 0.0000000000000000e+00  -1.5653241465531830e-02 -1.2356490307060132e-02 0.0000000000000000e+00  -1.3054601434926857e-02 -1.4819726995918657e-02 0.0000000000000000e+00  -9.8509641619992355e-03 -1.6876585315863741e-02 0.0000000000000000e+00  -6.1583628698764995e-03 -1.8244358350274149e-02 0.0000000000000000e+00  -2.2792884961289096e-03 -1.6865093505577865e-02 0.0000000000000000e+00  0.0000000000000000e+00 0.0000000000000000e+00 0.0000000000000000e+00  0.0000000000000000e+00 0.0000000000000000e+00 0.0000000000000000e+00  -1.9984528485185215e-03 1.7398873145171075e-02 0.0000000000000000e+00  -5.4288341494528308e-03 1.8976610356958426e-02 0.0000000000000000e+00  -8.7921644970095376e-03 1.8033743131731953e-02 0.0000000000000000e+00  -1.1895426978042236e-02 1.6559980258708588e-02 0.0000000000000000e+00  -1.4667436867959046e-02 1.4708539931273808e-02 0.0000000000000000e+00  -1.7067233243605571e-02 1.2550325839077774e-02 0.0000000000000000e+00  -1.9073040483709024e-02 1.0143581674085611e-02 0.0000000000000000e+00  -2.0675162492060545e-02 7.5325382998498256e-03 0.0000000000000000e+00  -2.1867302745765677e-02 4.7461616786754089e-03 0.0000000000000000e+00  -2.2638129940934094e-02 1.7999703758558017e-03 0.0000000000000000e+00  -2.2963532312904048e-02 -1.2990191494623351e-03 0.0000000000000000e+00  -2.2799658752027621e-02 -4.5433924520895215e-03 0.0000000000000000e+00  -2.2078662754625625e-02 -7.9113614616144277e-03 0.0000000000000000e+00  -2.0712223464967955e-02 -1.1348595097562354e-02 0.0000000000000000e+00  -1.8604392834556453e-02 -1.4748703230517302e-02 0.0000000000000000e+00  -1.5684276448820270e-02 -1.7936309671699402e-02 0.0000000000000000e+00  -1.1943246454376317e-02 -2.0661298513130432e-02 0.0000000000000000e+00  -7.5107063152324788e-03 -2.2514624582350106e-02 0.0000000000000000e+00  -2.7861834680735918e-03 -2.0886477306210179e-02 0.0000000000000000e+00  0.0000000000000000e+00 0.0000000000000000e+00 0.0000000000000000e+00  0.0000000000000000e+00 0.0000000000000000e+00 0.0000000000000000e+00  -2.3348882105241092e-03 2.0857627093482080e-02 0.0000000000000000e+00  -6.3260891029713381e-03 2.2697986186439870e-02 0.0000000000000000e+00  -1.0207370211919198e-02 2.1516617691289510e-02 0.0000000000000000e+00  -1.3751442957571448e-02 1.9702405426196102e-02 0.0000000000000000e+00  -1.6881707566438739e-02 1.7457562072939151e-02 0.0000000000000000e+00  -1.9565168853916574e-02 1.4881368171378714e-02 0.0000000000000000e+00  -2.1796401305746345e-02 1.2050973296706064e-02 0.0000000000000000e+00  -2.3585715868192605e-02 9.0191445505485909e-03 0.0000000000000000e+00  -2.4946460234872302e-02 5.8130295981021710e-03 0.0000000000000000e+00  -2.5883491550348726e-02 2.4362796223359683e-03 0.0000000000000000e+00  -2.6381479653049884e-02 -1.1252423379891319e-03 0.0000000000000000e+00  -2.6392182147272403e-02 -4.8924444521025439e-03 0.0000000000000000e+00  -2.5826537679705629e-02 -8.8776319366604389e-03 0.0000000000000000e+00  -2.4549340393146261e-02 -1.3060844472216971e-02 0.0000000000000000e+00  -2.2382092034405235e-02 -1.7345824798092772e-02 0.0000000000000000e+00  -1.9151819048337789e-02 -2.1507362208659279e-02 0.0000000000000000e+00  -1.4766993140287919e-02 -2.5172773435517368e-02 0.0000000000000000e+00  -9.3614632817172212e-03 -2.7735577879534363e-02 0.0000000000000000e+00  -3.4838144528742858e-03 -2.5855276331248719e-02 0.0000000000000000e+00  0.0000000000000000e+00 0.0000000000000000e+00 0.0000000000000000e+00  0.0000000000000000e+00 0.0000000000000000e+00 0.0000000000000000e+00  -2.7661160434178265e-03 2.4920766187184751e-02 0.0000000000000000e+00  -7.4620183426868363e-03 2.7031675464954250e-02 0.0000000000000000e+00  -1.1972918491055464e-02 2.5525744988897450e-02 0.0000000000000000e+00  -1.6027732808497487e-02 2.3269253384874670e-02 0.0000000000000000e+00  -1.9547727503903208e-02 2.0534526271904763e-02 0.0000000000000000e+00  -2.2517990222808898e-02 1.7462344642351649e-02 0.0000000000000000e+00  -2.4962184276153095e-02 1.4155309337328148e-02 0.0000000000000000e+00  -2.6923249858001080e-02 1.0675982742496704e-02 0.0000000000000000e+00  -2.8446072391069284e-02 7.0471551974537654e-03 0.0000000000000000e+00  -2.9563100767554307e-02 3.2554116828474723e-03 0.0000000000000000e+00  -3.0277358985956231e-02 -7.4229095076858696e-04 0.0000000000000000e+00  -3.0550320050568652e-02 -5.0137168968022059e-03 0.0000000000000000e+00  -3.0286664560746038e-02 -9.6446864253108971e-03 0.0000000000000000e+00  -2.9281109157660724e-02 -1.4686367305587688e-02 0.0000000000000000e+00  -2.7228602205854633e-02 -2.0059908249447637e-02 0.0000000000000000e+00  -2.3785648195461570e-02 -2.5508887279258086e-02 0.0000000000000000e+00  -1.8678983360395095e-02 -3.0544569271703820e-02 0.0000000000000000e+00  -1.1983262903319943e-02 -3.4250740263894845e-02 0.0000000000000000e+00  -4.4802194307963410e-03 -3.2183652462382147e-02 0.0000000000000000e+00  0.0000000000000000e+00 0.0000000000000000e+00 0.0000000000000000e+00  0.0000000000000000e+00 0.0000000000000000e+00 0.0000000000000000e+00  -3.3350571928001766e-03 2.9762206488178893e-02 0.0000000000000000e+00  -8.9331789405346449e-03 3.2127920103186131e-02 0.0000000000000000e+00  -1.4212908939118508e-02 3.0158892215641935e-02 0.0000000000000000e+00  -1.8848844552292233e-02 2.7305269396397588e-02 0.0000000000000000e+00  -2.2770350755678546e-02 2.3942621022051979e-02 0.0000000000000000e+00  -2.6000104159011692e-02 2.0271060357128584e-02 0.0000000000000000e+00  -2.8611283248242921e-02 1.6424956455861943e-02 0.0000000000000000e+00  -3.0696855288439621e-02 1.2475853258521134e-02 0.0000000000000000e+00  -3.2347804451403867e-02 8.4384721700738585e-03 0.0000000000000000e+00  -3.3635911991497153e-02 4.2783747028310630e-03 0.0000000000000000e+00  -3.4599531336264901e-02 -8.6171451500992557e-05 0.0000000000000000e+00  -3.5247883590204823e-02 -4.7946882804611544e-03 0.0000000000000000e+00  -3.5472958396998544e-02 -9.9993422028512909e-03 0.0000000000000000e+00  -3.4986621065588218e-02 -1.5807203241333858e-02 0.0000000000000000e+00  -3.3445976974580613e-02 -2.2353297742663661e-02 0.0000000000000000e+00  -3.0169278214741586e-02 -2.9714092734051480e-02 0.0000000000000000e+00  -2.4365342223849455e-02 -3.7145696721762225e-02 0.0000000000000000e+00  -1.5829897788414392e-02 -4.2825764660333901e-02 0.0000000000000000e+00  -5.8973860220317437e-03 -4.0496389167665979e-02 0.0000000000000000e+00  0.0000000000000000e+00 0.0000000000000000e+00 0.0000000000000000e+00  0.0000000000000000e+00 0.0000000000000000e+00 0.0000000000000000e+00  -4.1172978380072389e-03 3.5635449667469926e-02 0.0000000000000000e+00  -1.0900624701893255e-02 3.8188051242908118e-02 0.0000000000000000e+00  -1.7123735423806050e-02 3.5525842131595688e-02 0.0000000000000000e+00  -2.2399575639675831e-02 3.1835855933752481e-02 0.0000000000000000e+00  -2.6693565194403471e-02 2.7648207779547643e-02 0.0000000000000000e+00  -3.0103884047892479