<?xml version="1.0"?>
<VTKFile type="UnstructuredGrid"  version="0.1"  >
<UnstructuredGrid>
<Piece  NumberOfPoints="441" NumberOfCells="800">
<Points>
<DataArray  type="Float64"  NumberOfComponents="3"  format="ascii">0 0 0  0.05 0 0  0.1 0 0  0.15 0 0  0.2 0 0  0.25 0 0  0.3 0 0  0.35 0 0  0.4 0 0  0.45 0 0  0.5 0 0  0.55 0 0  0.6 0 0  0.65 0 0  0.7 0 0  0.75 0 0  0.8 0 0  0.85 0 0  0.9 0 0  0.95 0 0  1 0 0  0 0.05 0  0.05 0.05 0  0.1 0.05 0  0.15 0.05 0  0.2 0.05 0  0.25 0.05 0  0.3 0.05 0  0.35 0.05 0  0.4 0.05 0  0.45 0.05 0  0.5 0.05 0  0.55 0.05 0  0.6 0.05 0  0.65 0.05 0  0.7 0.05 0  0.75 0.05 0  0.8 0.05 0  0.85 0.05 0  0.9 0.05 0  0.95 0.05 0  1 0.05 0  0 0.1 0  0.05 0.1 0  0.1 0.1 0  0.15 0.1 0  0.2 0.1 0  0.25 0.1 0  0.3 0.1 0  0.35 0.1 0  0.4 0.1 0  0.45 0.1 0  0.5 0.1 0  0.55 0.1 0  0.6 0.1 0  0.65 0.1 0  0.7 0.1 0  0.75 0.1 0  0.8 0.1 0  0.85 0.1 0  0.9 0.1 0  0.95 0.1 0  1 0.1 0  0 0.15 0  0.05 0.15 0  0.1 0.15 0  0.15 0.15 0  0.2 0.15 0  0.25 0.15 0  0.3 0.15 0  0.35 0.15 0  0.4 0.15 0  0.45 0.15 0  0.5 0.15 0  0.55 0.15 0  0.6 0.15 0  0.65 0.15 0  0.7 0.15 0  0.75 0.15 0  0.8 0.15 0  0.85 0.15 0  0.9 0.15 0  0.95 0.15 0  1 0.15 0  0 0.2 0  0.05 0.2 0  0.1 0.2 0  0.15 0.2 0  0.2 0.2 0  0.25 0.2 0  0.3 0.2 0  0.35 0.2 0  0.4 0.2 0  0.45 0.2 0  0.5 0.2 0  0.55 0.2 0  0.6 0.2 0  0.65 0.2 0  0.7 0.2 0  0.75 0.2 0  0.8 0.2 0  0.85 0.2 0  0.9 0.2 0  0.95 0.2 0  1 0.2 0  0 0.25 0  0.05 0.25 0  0.1 0.25 0  0.15 0.25 0  0.2 0.25 0  0.25 0.25 0  0.3 0.25 0  0.35 0.25 0  0.4 0.25 0  0.45 0.25 0  0.5 0.25 0  0.55 0.25 0  0.6 0.25 0  0.65 0.25 0  0.7 0.25 0  0.75 0.25 0  0.8 0.25 0  0.85 0.25 0  0.9 0.25 0  0.95 0.25 0  1 0.25 0  0 0.3 0  0.05 0.3 0  0.1 0.3 0  0.15 0.3 0  0.2 0.3 0  0.25 0.3 0  0.3 0.3 0  0.35 0.3 0  0.4 0.3 0  0.45 0.3 0  0.5 0.3 0  0.55 0.3 0  0.6 0.3 0  0.65 0.3 0  0.7 0.3 0  0.75 0.3 0  0.8 0.3 0  0.85 0.3 0  0.9 0.3 0  0.95 0.3 0  1 0.3 0  0 0.35 0  0.05 0.35 0  0.1 0.35 0  0.15 0.35 0  0.2 0.35 0  0.25 0.35 0  0.3 0.35 0  0.35 0.35 0  0.4 0.35 0  0.45 0.35 0  0.5 0.35 0  0.55 0.35 0  0.6 0.35 0  0.65 0.35 0  0.7 0.35 0  0.75 0.35 0  0.8 0.35 0  0.85 0.35 0  0.9 0.35 0  0.95 0.35 0  1 0.35 0  0 0.4 0  0.05 0.4 0  0.1 0.4 0  0.15 0.4 0  0.2 0.4 0  0.25 0.4 0  0.3 0.4 0  0.35 0.4 0  0.4 0.4 0  0.45 0.4 0  0.5 0.4 0  0.55 0.4 0  0.6 0.4 0  0.65 0.4 0  0.7 0.4 0  0.75 0.4 0  0.8 0.4 0  0.85 0.4 0  0.9 0.4 0  0.95 0.4 0  1 0.4 0  0 0.45 0  0.05 0.45 0  0.1 0.45 0  0.15 0.45 0  0.2 0.45 0  0.25 0.45 0  0.3 0.45 0  0.35 0.45 0  0.4 0.45 0  0.45 0.45 0  0.5 0.45 0  0.55 0.45 0  0.6 0.45 0  0.65 0.45 0  0.7 0.45 0  0.75 0.45 0  0.8 0.45 0  0.85 0.45 0  0.9 0.45 0  0.95 0.45 0  1 0.45 0  0 0.5 0  0.05 0.5 0  0.1 0.5 0  0.15 0.5 0  0.2 0.5 0  0.25 0.5 0  0.3 0.5 0  0.35 0.5 0  0.4 0.5 0  0.45 0.5 0  0.5 0.5 0  0.55 0.5 0  0.6 0.5 0  0.65 0.5 0  0.7 0.5 0  0.75 0.5 0  0.8 0.5 0  0.85 0.5 0  0.9 0.5 0  0.95 0.5 0  1 0.5 0  0 0.55 0  0.05 0.55 0  0.1 0.55 0  0.15 0.55 0  0.2 0.55 0  0.25 0.55 0  0.3 0.55 0  0.35 0.55 0  0.4 0.55 0  0.45 0.55 0  0.5 0.55 0  0.55 0.55 0  0.6 0.55 0  0.65 0.55 0  0.7 0.55 0  0.75 0.55 0  0.8 0.55 0  0.85 0.55 0  0.9 0.55 0  0.95 0.55 0  1 0.55 0  0 0.6 0  0.05 0.6 0  0.1 0.6 0  0.15 0.6 0  0.2 0.6 0  0.25 0.6 0  0.3 0.6 0  0.35 0.6 0  0.4 0.6 0  0.45 0.6 0  0.5 0.6 0  0.55 0.6 0  0.6 0.6 0  0.65 0.6 0  0.7 0.6 0  0.75 0.6 0  0.8 0.6 0  0.85 0.6 0  0.9 0.6 0  0.95 0.6 0  1 0.6 0  0 0.65 0  0.05 0.65 0  0.1 0.65 0  0.15 0.65 0  0.2 0.65 0  0.25 0.65 0  0.3 0.65 0  0.35 0.65 0  0.4 0.65 0  0.45 0.65 0  0.5 0.65 0  0.55 0.65 0  0.6 0.65 0  0.65 0.65 0  0.7 0.65 0  0.75 0.65 0  0.8 0.65 0  0.85 0.65 0  0.9 0.65 0  0.95 0.65 0  1 0.65 0  0 0.7 0  0.05 0.7 0  0.1 0.7 0  0.15 0.7 0  0.2 0.7 0  0.25 0.7 0  0.3 0.7 0  0.35 0.7 0  0.4 0.7 0  0.45 0.7 0  0.5 0.7 0  0.55 0.7 0  0.6 0.7 0  0.65 0.7 0  0.7 0.7 0  0.75 0.7 0  0.8 0.7 0  0.85 0.7 0  0.9 0.7 0  0.95 0.7 0  1 0.7 0  0 0.75 0  0.05 0.75 0  0.1 0.75 0  0.15 0.75 0  0.2 0.75 0  0.25 0.75 0  0.3 0.75 0  0.35 0.75 0  0.4 0.75 0  0.45 0.75 0  0.5 0.75 0  0.55 0.75 0  0.6 0.75 0  0.65 0.75 0  0.7 0.75 0  0.75 0.75 0  0.8 0.75 0  0.85 0.75 0  0.9 0.75 0  0.95 0.75 0  1 0.75 0  0 0.8 0  0.05 0.8 0  0.1 0.8 0  0.15 0.8 0  0.2 0.8 0  0.25 0.8 0  0.3 0.8 0  0.35 0.8 0  0.4 0.8 0  0.45 0.8 0  0.5 0.8 0  0.55 0.8 0  0.6 0.8 0  0.65 0.8 0  0.7 0.8 0  0.75 0.8 0  0.8 0.8 0  0.85 0.8 0  0.9 0.8 0  0.95 0.8 0  1 0.8 0  0 0.85 0  0.05 0.85 0  0.1 0.85 0  0.15 0.85 0  0.2 0.85 0  0.25 0.85 0  0.3 0.85 0  0.35 0.85 0  0.4 0.85 0  0.45 0.85 0  0.5 0.85 0  0.55 0.85 0  0.6 0.85 0  0.65 0.85 0  0.7 0.85 0  0.75 0.85 0  0.8 0.85 0  0.85 0.85 0  0.9 0.85 0  0.95 0.85 0  1 0.85 0  0 0.9 0  0.05 0.9 0  0.1 0.9 0  0.15 0.9 0  0.2 0.9 0  0.25 0.9 0  0.3 0.9 0  0.35 0.9 0  0.4 0.9 0  0.45 0.9 0  0.5 0.9 0  0.55 0.9 0  0.6 0.9 0  0.65 0.9 0  0.7 0.9 0  0.75 0.9 0  0.8 0.9 0  0.85 0.9 0  0.9 0.9 0  0.95 0.9 0  1 0.9 0  0 0.95 0  0.05 0.95 0  0.1 0.95 0  0.15 0.95 0  0.2 0.95 0  0.25 0.95 0  0.3 0.95 0  0.35 0.95 0  0.4 0.95 0  0.45 0.95 0  0.5 0.95 0  0.55 0.95 0  0.6 0.95 0  0.65 0.95 0  0.7 0.95 0  0.75 0.95 0  0.8 0.95 0  0.85 0.95 0  0.9 0.95 0  0.95 0.95 0  1 0.95 0  0 1 0  0.05 1 0  0.1 1 0  0.15 1 0  0.2 1 0  0.25 1 0  0.3 1 0  0.35 1 0  0.4 1 0  0.45 1 0  0.5 1 0  0.55 1 0  0.6 1 0  0.65 1 0  0.7 1 0  0.75 1 0  0.8 1 0  0.85 1 0  0.9 1 0  0.95 1 0  1 1 0  </DataArray>
</Points>
<Cells>
[...]
<PointData  Vectors="f_137"> 
<DataArray  type="Float64"  Name="f_137"  NumberOfComponents="3" format="ascii">0.0000000000000000e+00 0.0000000000000000e+00 0.0000000000000000e+00  0.0000000000000000e+00 0.0000000000000000e+00 0.0000000000000000e+00  0.0000000000000000e+00 0.0000000000000000e+00 0.0000000000000000e+00  0.0000000000000000e+00 0.0000000000000000e+00 0.0000000000000000e+00  0.0000000000000000e+00 0.0000000000000000e+00 0.0000000000000000e+00  0.0000000000000000e+00 0.0000000000000000e+00 0.0000000000000000e+00  0.0000000000000000e+00 0.0000000000000000e+00 0.0000000000000000e+00  0.0000000000000000e+00 0.0000000000000000e+00 0.0000000000000000e+00  0.0000000000000000e+00 0.0000000000000000e+00 0.0000000000000000e+00  0.0000000000000000e+00 0.0000000000000000e+00 0.0000000000000000e+00  0.0000000000000000e+00 0.0000000000000000e+00 0.0000000000000000e+00  0.0000000000000000e+00 0.0000000000000000e+00 0.0000000000000000e+00  0.0000000000000000e+00 0.0000000000000000e+00 0.0000000000000000e+00  0.0000000000000000e+00 0.0000000000000000e+00 0.0000000000000000e+00  0.0000000000000000e+00 0.0000000000000000e+00 0.0000000000000000e+00  0.0000000000000000e+00 0.0000000000000000e+00 0.0000000000000000e+00  0.0000000000000000e+00 0.0000000000000000e+00 0.0000000000000000e+00  0.0000000000000000e+00 0.0000000000000000e+00 0.0000000000000000e+00  0.0000000000000000e+00 0.0000000000000000e+00 0.0000000000000000e+00  0.0000000000000000e+00 0.0000000000000000e+00 0.0000000000000000e+00  0.0000000000000000e+00 0.0000000000000000e+00 0.0000000000000000e+00  0.0000000000000000e+00 0.0000000000000000e+00 0.0000000000000000e+00  -8.2635232664460322e-04 8.1860845140776834e-04 0.0000000000000000e+00  -2.2889225659671023e-03 9.2851046234194274e-04 0.0000000000000000e+00  -3.7597636103806941e-03 8.8229499637802495e-04 0.0000000000000000e+00  -5.1347157220639041e-03 8.1506985646595770e-04 0.0000000000000000e+00  -6.3826802989903481e-03 7.2748733843463684e-04 0.0000000000000000e+00  -7.4708493532516049e-03 6.2124011395907992e-04 0.0000000000000000e+00  -8.3710180493449058e-03 4.9822980034908040e-04 0.0000000000000000e+00  -9.0584930803741803e-03 3.6063904154148537e-04 0.0000000000000000e+00  -9.5126582100486107e-03 2.1098078466915698e-04 0.0000000000000000e+00  -9.7174510028691669e-03 5.2144036081086145e-05 0.0000000000000000e+00  -9.6619293145160604e-03 -1.1250538844943551e-04 0.0000000000000000e+00  -9.3409957866029195e-03 -2.7902031605241335e-04 0.0000000000000000e+00  -8.7562504303774318e-03 -4.4280352064262908e-04 0.0000000000000000e+00  -7.9169248653525193e-03 -5.9863261670348611e-04 0.0000000000000000e+00  -6.8406062222076090e-03 -7.4079518699723924e-04 0.0000000000000000e+00  -5.5538831098557321e-03 -8.6341542753297427e-04 0.0000000000000000e+00  -4.0919517249341161e-03 -9.6039597065873000e-04 0.0000000000000000e+00  -2.5049762614833479e-03 -1.0164397262511730e-03 0.0000000000000000e+00  -8.9566442107109478e-04 -8.9527120510664423e-04 0.0000000000000000e+00  0.0000000000000000e+00 0.0000000000000000e+00 0.0000000000000000e+00  0.0000000000000000e+00 0.0000000000000000e+00 0.0000000000000000e+00  -9.8985059557148364e-04 2.3160695618164337e-03 0.0000000000000000e+00  -2.6933265745213196e-03 2.5788654655358517e-03 0.0000000000000000e+00  -4.3899982361677529e-03 2.4606460489021778e-03 0.0000000000000000e+00  -5.9800676618947980e-03 2.2699224099898088e-03 0.0000000000000000e+00  -7.4203417126137965e-03 2.0218879375881625e-03 0.0000000000000000e+00  -8.6740345240313432e-03 1.7222836006519102e-03 0.0000000000000000e+00  -9.7090807005234866e-03 1.3769156991229865e-03 0.0000000000000000e+00  -1.0497758992923857e-02 9.9235644489406669e-04 0.0000000000000000e+00  -1.1017202063063688e-02 5.7587864294357906e-04 0.0000000000000000e+00  -1.1249704760046013e-02 1.3560665309604906e-04 0.0000000000000000e+00  -1.1183234593004498e-02 -3.1921942446840003e-04 0.0000000000000000e+00  -1.0812157619649860e-02 -7.7794696162413715e-04 0.0000000000000000e+00  -1.0138183808691010e-02 -1.2282920044088968e-03 0.0000000000000000e+00  -9.1714932530216429e-03 -1.6563343327444663e-03 0.0000000000000000e+00  -7.9316443602326040e-03 -2.0468569328586975e-03 0.0000000000000000e+00  -6.4489146659209564e-03 -2.3839933250656138e-03 0.0000000000000000e+00  -4.7632893949205784e-03 -2.6512293865325141e-03 0.0000000000000000e+00  -2.9310780297891418e-03 -2.8127298777251416e-03 0.0000000000000000e+00  -1.0749754819130426e-03 -2.5435118444187923e-03 0.0000000000000000e+00  0.0000000000000000e+00 0.0000000000000000e+00 0.0000000000000000e+00  0.0000000000000000e+00 0.0000000000000000e+00 0.0000000000000000e+00  -1.0378269558212821e-03 3.9415076502354865e-03 0.0000000000000000e+00  -2.8385816704552518e-03 4.3565639101959446e-03 0.0000000000000000e+00  -4.6296464059569437e-03 4.1565365023183117e-03 0.0000000000000000e+00  -6.3088351710700614e-03 3.8324771485390113e-03 0.0000000000000000e+00  -7.8303544310606085e-03 3.4116081065557985e-03 0.0000000000000000e+00  -9.1566745609185807e-03 2.9041060606192423e-03 0.0000000000000000e+00  -1.0254467892769034e-02 2.3203607977547807e-03 0.0000000000000000e+00  -1.1095119300850447e-02 1.6716382850519521e-03 0.0000000000000000e+00  -1.1654762792017543e-02 9.7011103423262819e-04 0.0000000000000000e+00  -1.1914430915551902e-02 2.2914629663589952e-04 0.0000000000000000e+00  -1.1860442480575880e-02 -5.3619470890985024e-04 0.0000000000000000e+00  -1.1485131179108585e-02 -1.3085541872695434e-03 0.0000000000000000e+00  -1.0787970575676339e-02 -2.0677700872391651e-03 0.0000000000000000e+00  -9.7770804671224107e-03 -2.7907149179543949e-03 0.0000000000000000e+00  -8.4706819561197657e-03 -3.4517227250845622e-03 0.0000000000000000e+00  -6.8990631982797004e-03 -4.0236417563815820e-03 0.0000000000000000e+00  -5.1036724837325124e-03 -4.4778261342538640e-03 0.0000000000000000e+00  -3.1449729032205411e-03 -4.7575892152702274e-03 0.0000000000000000e+00  -1.1545078238327186e-03 -4.3250848095682734e-03 0.0000000000000000e+00  0.0000000000000000e+00 0.0000000000000000e+00 0.0000000000000000e+00  0.0000000000000000e+00 0.0000000000000000e+00 0.0000000000000000e+00  -1.1123885731140139e-03 5.6639199284955781e-03 0.0000000000000000e+00  -3.0434934890202336e-03 6.2468417920744515e-03 0.0000000000000000e+00  -4.9647011753240818e-03 5.9604276299545138e-03 0.0000000000000000e+00  -6.7656815134997435e-03 5.4951926195493540e-03 0.0000000000000000e+00  -8.3982352011858497e-03 4.8918597851014805e-03 0.0000000000000000e+00  -9.8234181978965520e-03 4.1657118889821109e-03 0.0000000000000000e+00  -1.1006789702250759e-02 3.3319059570980176e-03 0.0000000000000000e+00  -1.1918892650595588e-02 2.4063930847416787e-03 0.0000000000000000e+00  -1.2534814326790895e-02 1.4059801157089843e-03 0.0000000000000000e+00  -1.2834023444662180e-02 3.4876872511737641e-04 0.0000000000000000e+00  -1.2800491698523287e-02 -7.4498235675401862e-04 0.0000000000000000e+00  -1.2423366421932952e-02 -1.8517479258599440e-03 0.0000000000000000e+00  -1.1698330307303287e-02 -2.9436819330146890e-03 0.0000000000000000e+00  -1.0629706665410731e-02 -3.9880315547661648e-03 0.0000000000000000e+00  -9.2327819083948999e-03 -4.9474683608649647e-03 0.0000000000000000e+00  -7.5369796069648300e-03 -5.7815133149236577e-03 0.0000000000000000e+00  -5.5855540765194040e-03 -6.4470192915410040e-03 0.0000000000000000e+00  -3.4454811730521458e-03 -6.8624702214892192e-03 0.0000000000000000e+00  -1.2645239925375650e-03 -6.2566304257222725e-03 0.0000000000000000e+00  0.0000000000000000e+00 0.0000000000000000e+00 0.0000000000000000e+00  0.0000000000000000e+00 0.0000000000000000e+00 0.0000000000000000e+00  -1.2153946511589513e-03 7.5304328190643130e-03 0.0000000000000000e+00  -3.3252498355685603e-03 8.2938883772778037e-03 0.0000000000000000e+00  -5.4237132326055530e-03 7.9127764335405609e-03 0.0000000000000000e+00  -7.3897603028301477e-03 7.2944761970005082e-03 0.0000000000000000e+00  -9.1721352234722647e-03 6.4947910182104962e-03 0.0000000000000000e+00  -1.0730030012439882e-02 5.5348266647172488e-03 0.0000000000000000e+00  -1.2028067310441355e-02 4.4349675423008411e-03 0.0000000000000000e+00  -1.3036227950091118e-02 3.2159149652125790e-03 0.0000000000000000e+00  -1.3728800614001951e-02 1.8986607651603669e-03 0.0000000000000000e+00  -1.4083606446561654e-02 5.0514953107843794e-04 0.0000000000000000e+00  -1.4081623910609466e-02 -9.4032103984219805e-04 0.0000000000000000e+00  -1.3707446323140310e-02 -2.4091815330555145e-03 0.0000000000000000e+00  -1.2950865137590062e-02 -3.8665669682600083e-03 0.0000000000000000e+00  -1.1809801696745302e-02 -5.2698263725882476e-03 0.0000000000000000e+00  -1.0294010234218087e-02 -6.5683514740020937e-03 0.0000000000000000e+00  -8.4303021283199490e-03 -7.7052569041090209e-03 0.0000000000000000e+00  -6.2636164628246697e-03 -8.6184824529616753e-03 0.0000000000000000e+00  -3.8702330948402032e-03 -9.1952795456009834e-03 0.0000000000000000e+00  -1.4209526701415942e-03 -8.4009822573950094e-03 0.0000000000000000e+00  0.0000000000000000e+00 0.0000000000000000e+00 0.0000000000000000e+00  0.0000000000000000e+00 0.0000000000000000e+00 0.0000000000000000e+00  -1.3499936221546688e-03 9.5878163307123003e-03 0.0000000000000000e+00  -3.6927459825870216e-03 1.0548484282167066e-02 0.0000000000000000e+00  -6.0202853681191864e-03 1.0061483264334623e-02 0.0000000000000000e+00  -8.1982668830232128e-03 9.2735823992166639e-03 0.0000000000000000e+00  -1.0171462009909543e-02 8.2583084663276594e-03 0.0000000000000000e+00  -1.1897190310202366e-02 7.0440902371704094e-03 0.0000000000000000e+00  -1.3339760085251248e-02 5.6574427129381828e-03 0.0000000000000000e+00  -1.4469516221377323e-02 4.1239598832345011e-03 0.0000000000000000e+00  -1.5260829268601320e-02 2.4681470199273800e-03 0.0000000000000000e+00  -1.5690305082245080e-02 7.1435829002535725e-04 0.0000000000000000e+00  -1.5735528421128731e-02 -1.1110547649199778e-03 0.0000000000000000e+00  -1.5374971908428165e-02 -2.9766020791570495e-03 0.0000000000000000e+00  -1.4589638128521765e-02 -4.8420232063345328e-03 0.0000000000000000e+00  -1.3366996980959086e-02 -6.6550696794322184e-03 0.0000000000000000e+00  -1.1706730889677414e-02 -8.3499955227291089e-03 0.0000000000000000e+00  -9.6293442318375784e-03 -9.8489908298751930e-03 0.0000000000000000e+00  -7.1800391657849735e-03 -1.1064076285548318e-02 0.0000000000000000e+00  -4.4470879290059205e-03 -1.1841175664618269e-02 0.0000000000000000e+00  -1.6342684474907625e-03 -1.0839849474515871e-02 0.0000000000000000e+00  0.0000000000000000e+00 0.0000000000000000e+00 0.0000000000000000e+00  0.0000000000000000e+00 0.0000000000000000e+00 0.0000000000000000e+00  -1.5207223857016735e-03 1.1890367666795265e-02 0.0000000000000000e+00  -4.1577038035741443e-03 1.3067902704454602e-02 0.0000000000000000e+00  -6.7721471493592264e-03 1.2458464055591730e-02 0.0000000000000000e+00  -9.2127876446577561e-03 1.1477706751861248e-02 0.0000000000000000e+00  -1.1419567344996669e-02 1.0220730641256488e-02 0.0000000000000000e+00  -1.3348471581154217e-02 8.7256380525066179e-03 0.0000000000000000e+00  -1.4964929280247407e-02 7.0265504490629287e-03 0.0000000000000000e+00  -1.6241584787444151e-02 5.1542875063664145e-03 0.0000000000000000e+00  -1.7154804395164206e-02 3.1359288081908476e-03 0.0000000000000000e+00  -1.7681324308565709e-02 9.9605546907029219e-04 0.0000000000000000e+00  -1.7795520906376552e-02 -1.2401373216580135e-03 0.0000000000000000e+00  -1.7468178512796532e-02 -3.5420052913315010e-03 0.0000000000000000e+00  -1.6667689113473660e-02 -5.8673557426222349e-03 0.0000000000000000e+00  -1.5364889182158462e-02 -8.1561268012923498e-03 0.0000000000000000e+00  -1.3541572706989363e-02 -1.0325841457245718e-02 0.0000000000000000e+00  -1.1204624753604770e-02 -1.2271524375170526e-02 0.0000000000000000e+00  -8.3953896344158771e-03 -1.3868358158174469e-02 0.0000000000000000e+00  -5.2168565739310561e-03 -1.4904907300713203e-02 0.0000000000000000e+00  -1.9199509316868092e-03 -1.3675291839198264e-02 0.0000000000000000e+00  0.0000000000000000e+00 0.0000000000000000e+00 0.0000000000000000e+00  0.0000000000000000e+00 0.0000000000000000e+00 0.0000000000000000e+00  -1.7342975486370560e-03 1.4500968619998158e-02 0.0000000000000000e+00  -4.7373025535122964e-03 1.5917237760729810e-02 0.0000000000000000e+00  -7.7044460156391213e-03 1.5161288223760344e-02 0.0000000000000000e+00  -1.0462972361906119e-02 1.3955054987183304e-02 0.0000000000000000e+00  -1.2947286205934154e-02 1.2420998739197471e-02 0.0000000000000000e+00  -1.5113374929432434e-02 1.0610684034316954e-02 0.0000000000000000e+00  -1.6930517376787260e-02 8.5682215452997836e-03 0.0000000000000000e+00  -1.8377116249896772e-02 6.3302971020555553e-03 0.0000000000000000e+00  -1.9435027685936548e-02 3.9253280338149834e-03 0.0000000000000000e+00  -2.0083946798678556e-02 1.3750130395676231e-03 0.0000000000000000e+00  -2.0296451910211791e-02 -1.3014976381382523e-03 0.0000000000000000e+00  -2.0034677981475544e-02 -4.0807486383734179e-03 0.0000000000000000e+00  -1.9249770466958645e-02 -6.9253224577239831e-03 0.0000000000000000e+00  -1.7886823901550337e-02 -9.7721518461508766e-03 0.0000000000000000e+00  -1.5896702401297751e-02 -1.2522022607105590e-02 0.0000000000000000e+00  -1.3258819420413749e-02 -1.5035198806612176e-02 0.0000000000000000e+00  -1.0000818929826441e-02 -1.7133353600563981e-02 0.0000000000000000e+00  -6.2419821971175481e-03 -1.8521036228743945e-02 0.0000000000000000e+00  -2.3017112562646008e-03 -1.7040499529238331e-02 0.0000000000000000e+00  0.0000000000000000e+00 0.0000000000000000e+00 0.0000000000000000e+00  0.0000000000000000e+00 0.0000000000000000e+00 0.0000000000000000e+00  -2.0009031412333749e-03 1.7495410068852853e-02 0.0000000000000000e+00  -5.4569003382526253e-03 1.9172946253942145e-02 0.0000000000000000e+00  -8.8533431449912894e-03 1.8234666525933502e-02 0.0000000000000000e+00  -1.1990095035268877e-02 1.6756356895527545e-02 0.0000000000000000e+00  -1.4795647067026182e-02 1.4896705652807842e-02 0.0000000000000000e+00  -1.7228736214499815e-02 1.2726654409952331e-02 0.0000000000000000e+00  -1.9267227317671085e-02 1.0303937949304776e-02 0.0000000000000000e+00  -2.0900948841083618e-02 7.6721767903605211e-03 0.0000000000000000e+00  -2.2122962087553023e-02 4.8596186366162853e-03 0.0000000000000000e+00  -2.2921022154395745e-02 1.8809389254728264e-03 0.0000000000000000e+00  -2.3269692262290951e-02 -1.2578212179543094e-03 0.0000000000000000e+00  -2.3123098882708984e-02 -4.5502036831172720e-03 0.0000000000000000e+00  -2.2410316489740036e-02 -7.9748448556815933e-03 0.0000000000000000e+00  -2.1038967129269549e-02 -1.1476538766754934e-02 0.0000000000000000e+00  -1.8908529146606911e-02 -1.4946058197756872e-02 0.0000000000000000e+00  -1.5944368836387633e-02 -1.8202504630394342e-02 0.0000000000000000e+00  -1.2137011433969277e-02 -2.0986481560283609e-02 0.0000000000000000e+00  -7.6199161231603300e-03 -2.2870083023096260e-02 0.0000000000000000e+00  -2.8159807655630162e-03 -2.1115833405869280e-02 0.0000000000000000e+00  0.0000000000000000e+00 0.0000000000000000e+00 0.0000000000000000e+00  0.0000000000000000e+00 0.0000000000000000e+00 0.0000000000000000e+00  -2.3363727842677538e-03 2.0968922336120074e-02 0.0000000000000000e+00  -6.3548489526330815e-03 2.2927586676645538e-02 0.0000000000000000e+00  -1.0271983916474239e-02 2.1752323694118017e-02 0.0000000000000000e+00  -1.3852608229218563e-02 1.9933956970516798e-02 0.0000000000000000e+00  -1.7019917247340099e-02 1.7681042302248207e-02 0.0000000000000000e+00  -1.9740700880770411e-02 1.5092881808653539e-02 0.0000000000000000e+00  -2.2009262886254488e-02 1.2246018598544484e-02 0.0000000000000000e+00  -2.3835554545048550e-02 9.1924974115381065e-03 0.0000000000000000e+00  -2.5232439957119854e-02 5.9585791876613156e-03 0.0000000000000000e+00  -2.6204133559095982e-02 2.5467102262330039e-03 0.0000000000000000e+00  -2.6734246466548480e-02 -1.0588854092145174e-03 0.0000000000000000e+00  -2.6772268638829397e-02 -4.8808562795975658e-03 0.0000000000000000e+00  -2.6225523070799107e-02 -8.9330816342988850e-03 0.0000000000000000e+00  -2.4953285567984314e-02 -1.3196923890855141e-02 0.0000000000000000e+00  -2.2769094596526339e-02 -1.7574972802252464e-02 0.0000000000000000e+00  -1.9491513079028029e-02 -2.1834460853235902e-02 0.0000000000000000e+00  -1.5024522166759662e-02 -2.5586428700265056e-02 0.0000000000000000e+00  -9.5074520668975739e-03 -2.8194636529900046e-02 0.0000000000000000e+00  -3.5237707888270474e-03 -2.6155128242340061e-02 0.0000000000000000e+00  0.0000000000000000e+00 0.0000000000000000e+00 0.0000000000000000e+00  0.0000000000000000e+00 0.0000000000000000e+00 0.0000000000000000e+00  -2.7662093503140178e-03 2.5046861060159128e-02 0.0000000000000000e+00  -7.4909240245083757e-03 2.7297054433158843e-02 0.0000000000000000e+00  -1.2040427745633700e-02 2.5799123767274081e-02 0.0000000000000000e+00  -1.6134923533400680e-02 2.3539307603033792e-02 0.0000000000000000e+00  -1.9695638000953940e-02 2.0797186643109186e-02 0.0000000000000000e+00  -2.2707528510806870e-02 1.7713525937333975e-02 0.0000000000000000e+00  -2.5194058122849271e-02 1.4390238202805303e-02 0.0000000000000000e+00  -2.7197916613354932e-02 1.0889126119908759e-02 0.0000000000000000e+00  -2.8763783906462882e-02 7.2320185632785165e-03 0.0000000000000000e+00  -2.9924072224724929e-02 3.4040510155235850e-03 0.0000000000000000e+00  -3.0681027526108164e-02 -6.3974620587369815e-04 0.0000000000000000e+00  -3.0994442281379243e-02 -4.9702721855220634e-03 0.0000000000000000e+00  -3.0767227907874943e-02 -9.6794380128850527e-03 0.0000000000000000e+00  -2.9785259892534024e-02 -1.4824483244534085e-02 0.0000000000000000e+00  -2.7729834174096055e-02 -2.0323153172832193e-02 0.0000000000000000e+00  -2.4240133808454026e-02 -2.5907810051833208e-02 0.0000000000000000e+00  -1.9030975219273039e-02 -3.1067873723272257e-02 0.0000000000000000e+00  -1.2184100802393523e-02 -3.4844162699581009e-02 0.0000000000000000e+00  -4.5358316602545851e-03 -3.2577901220105870e-02 0.0000000000000000e+00  0.0000000000000000e+00 0.0000000000000000e+00 0.0000000000000000e+00  0.0000000000000000e+00 0.0000000000000000e+00 0.0000000000000000e+00  -3.3332369523537647e-03 2.9902760130419592e-02 0.0000000000000000e+00  -8.9614464421007359e-03 3.2431487891224312e-02 0.0000000000000000e+00  -1.4282362414111162e-02 3.0472768750451778e-02 0.0000000000000000e+00  -1.8961035685445597e-02 2.7617213319223548e-02 0.0000000000000000e+00  -2.2927029828851794e-02 2.4248517034552837e-02 0.0000000000000000e+00  -2.6202935800998119e-02 2.0566670068385539e-02 0.0000000000000000e+00  -2.8861703333382182e-02 1.6705277875851760e-02 0.0000000000000000e+00  -3.0996075130268842e-02 1.2735198079930392e-02 0.0000000000000000e+00  -3.2697235369783702e-02 8.6703555789099853e-03 0.0000000000000000e+00  -3.4037397492248975e-02 4.4751816906463456e-03 0.0000000000000000e+00  -3.5054706412986095e-02 6.5991750552361254e-05 0.0000000000000000e+00  -3.5761944975781862e-02 -4.7033278990369111e-03 0.0000000000000000e+00  -3.6049253120040405e-02 -9.9911408230173894e-03 0.0000000000000000e+00  -3.5611850032446948e-02 -1.5906779991028637e-02 0.0000000000000000e+00  -3.4101412420013515e-02 -2.2597583811797082e-02 0.0000000000000000e+00  -3.0796366285510399e-02 -3.0160165183157558e-02 0.0000000000000000e+00  -2.4870332579788084e-02 -3.7802554099670198e-02 0.0000000000000000e+00  -1.6119427690957748e-02 -4.3616530607654233e-02 0.0000000000000000e+00  -5.9782646655282771e-03 -4.1038690652050486e-02 0.0000000000000000e+00  0.0000000000000000e+00 0.0000000000000000e+00 0.0000000000000000e+00  0.0000000000000000e+00 0.0000000000000000e+00 0.0000000000000000e+00  -4.1129792186428635e-03 3.5789665724951014e-02 0.0000000000000000e+00  -1.0927205724151899e-02 3.8531863560015728e-02 0.0000000000000000e+00  -1.7193628700504216e-02 3.5882759459402405e-02 0.0000000000000000e+00  -2.2515003661809335e-02 3.2193023051624962e-02 0.0000000000000000e+00  -2.6857308416613723e-02 2.8001558009139470e-02 0.0000000000000000e+00  -3.0318570060379670e