<?xml version="1.0"?>
<VTKFile type="UnstructuredGrid"  version="0.1"  >
<UnstructuredGrid>
<Piece  NumberOfPoints="441" NumberOfCells="800">
<Points>
<DataArray  type="Float64"  NumberOfComponents="3"  format="ascii">0 0 0  0.05 0 0  0.1 0 0  0.15 0 0  0.2 0 0  0.25 0 0  0.3 0 0  0.35 0 0  0.4 0 0  0.45 0 0  0.5 0 0  0.55 0 0  0.6 0 0  0.65 0 0  0.7 0 0  0.75 0 0  0.8 0 0  0.85 0 0  0.9 0 0  0.95 0 0  1 0 0  0 0.05 0  0.05 0.05 0  0.1 0.05 0  0.15 0.05 0  0.2 0.05 0  0.25 0.05 0  0.3 0.05 0  0.35 0.05 0  0.4 0.05 0  0.45 0.05 0  0.5 0.05 0  0.55 0.05 0  0.6 0.05 0  0.65 0.05 0  0.7 0.05 0  0.75 0.05 0  0.8 0.05 0  0.85 0.05 0  0.9 0.05 0  0.95 0.05 0  1 0.05 0  0 0.1 0  0.05 0.1 0  0.1 0.1 0  0.15 0.1 0  0.2 0.1 0  0.25 0.1 0  0.3 0.1 0  0.35 0.1 0  0.4 0.1 0  0.45 0.1 0  0.5 0.1 0  0.55 0.1 0  0.6 0.1 0  0.65 0.1 0  0.7 0.1 0  0.75 0.1 0  0.8 0.1 0  0.85 0.1 0  0.9 0.1 0  0.95 0.1 0  1 0.1 0  0 0.15 0  0.05 0.15 0  0.1 0.15 0  0.15 0.15 0  0.2 0.15 0  0.25 0.15 0  0.3 0.15 0  0.35 0.15 0  0.4 0.15 0  0.45 0.15 0  0.5 0.15 0  0.55 0.15 0  0.6 0.15 0  0.65 0.15 0  0.7 0.15 0  0.75 0.15 0  0.8 0.15 0  0.85 0.15 0  0.9 0.15 0  0.95 0.15 0  1 0.15 0  0 0.2 0  0.05 0.2 0  0.1 0.2 0  0.15 0.2 0  0.2 0.2 0  0.25 0.2 0  0.3 0.2 0  0.35 0.2 0  0.4 0.2 0  0.45 0.2 0  0.5 0.2 0  0.55 0.2 0  0.6 0.2 0  0.65 0.2 0  0.7 0.2 0  0.75 0.2 0  0.8 0.2 0  0.85 0.2 0  0.9 0.2 0  0.95 0.2 0  1 0.2 0  0 0.25 0  0.05 0.25 0  0.1 0.25 0  0.15 0.25 0  0.2 0.25 0  0.25 0.25 0  0.3 0.25 0  0.35 0.25 0  0.4 0.25 0  0.45 0.25 0  0.5 0.25 0  0.55 0.25 0  0.6 0.25 0  0.65 0.25 0  0.7 0.25 0  0.75 0.25 0  0.8 0.25 0  0.85 0.25 0  0.9 0.25 0  0.95 0.25 0  1 0.25 0  0 0.3 0  0.05 0.3 0  0.1 0.3 0  0.15 0.3 0  0.2 0.3 0  0.25 0.3 0  0.3 0.3 0  0.35 0.3 0  0.4 0.3 0  0.45 0.3 0  0.5 0.3 0  0.55 0.3 0  0.6 0.3 0  0.65 0.3 0  0.7 0.3 0  0.75 0.3 0  0.8 0.3 0  0.85 0.3 0  0.9 0.3 0  0.95 0.3 0  1 0.3 0  0 0.35 0  0.05 0.35 0  0.1 0.35 0  0.15 0.35 0  0.2 0.35 0  0.25 0.35 0  0.3 0.35 0  0.35 0.35 0  0.4 0.35 0  0.45 0.35 0  0.5 0.35 0  0.55 0.35 0  0.6 0.35 0  0.65 0.35 0  0.7 0.35 0  0.75 0.35 0  0.8 0.35 0  0.85 0.35 0  0.9 0.35 0  0.95 0.35 0  1 0.35 0  0 0.4 0  0.05 0.4 0  0.1 0.4 0  0.15 0.4 0  0.2 0.4 0  0.25 0.4 0  0.3 0.4 0  0.35 0.4 0  0.4 0.4 0  0.45 0.4 0  0.5 0.4 0  0.55 0.4 0  0.6 0.4 0  0.65 0.4 0  0.7 0.4 0  0.75 0.4 0  0.8 0.4 0  0.85 0.4 0  0.9 0.4 0  0.95 0.4 0  1 0.4 0  0 0.45 0  0.05 0.45 0  0.1 0.45 0  0.15 0.45 0  0.2 0.45 0  0.25 0.45 0  0.3 0.45 0  0.35 0.45 0  0.4 0.45 0  0.45 0.45 0  0.5 0.45 0  0.55 0.45 0  0.6 0.45 0  0.65 0.45 0  0.7 0.45 0  0.75 0.45 0  0.8 0.45 0  0.85 0.45 0  0.9 0.45 0  0.95 0.45 0  1 0.45 0  0 0.5 0  0.05 0.5 0  0.1 0.5 0  0.15 0.5 0  0.2 0.5 0  0.25 0.5 0  0.3 0.5 0  0.35 0.5 0  0.4 0.5 0  0.45 0.5 0  0.5 0.5 0  0.55 0.5 0  0.6 0.5 0  0.65 0.5 0  0.7 0.5 0  0.75 0.5 0  0.8 0.5 0  0.85 0.5 0  0.9 0.5 0  0.95 0.5 0  1 0.5 0  0 0.55 0  0.05 0.55 0  0.1 0.55 0  0.15 0.55 0  0.2 0.55 0  0.25 0.55 0  0.3 0.55 0  0.35 0.55 0  0.4 0.55 0  0.45 0.55 0  0.5 0.55 0  0.55 0.55 0  0.6 0.55 0  0.65 0.55 0  0.7 0.55 0  0.75 0.55 0  0.8 0.55 0  0.85 0.55 0  0.9 0.55 0  0.95 0.55 0  1 0.55 0  0 0.6 0  0.05 0.6 0  0.1 0.6 0  0.15 0.6 0  0.2 0.6 0  0.25 0.6 0  0.3 0.6 0  0.35 0.6 0  0.4 0.6 0  0.45 0.6 0  0.5 0.6 0  0.55 0.6 0  0.6 0.6 0  0.65 0.6 0  0.7 0.6 0  0.75 0.6 0  0.8 0.6 0  0.85 0.6 0  0.9 0.6 0  0.95 0.6 0  1 0.6 0  0 0.65 0  0.05 0.65 0  0.1 0.65 0  0.15 0.65 0  0.2 0.65 0  0.25 0.65 0  0.3 0.65 0  0.35 0.65 0  0.4 0.65 0  0.45 0.65 0  0.5 0.65 0  0.55 0.65 0  0.6 0.65 0  0.65 0.65 0  0.7 0.65 0  0.75 0.65 0  0.8 0.65 0  0.85 0.65 0  0.9 0.65 0  0.95 0.65 0  1 0.65 0  0 0.7 0  0.05 0.7 0  0.1 0.7 0  0.15 0.7 0  0.2 0.7 0  0.25 0.7 0  0.3 0.7 0  0.35 0.7 0  0.4 0.7 0  0.45 0.7 0  0.5 0.7 0  0.55 0.7 0  0.6 0.7 0  0.65 0.7 0  0.7 0.7 0  0.75 0.7 0  0.8 0.7 0  0.85 0.7 0  0.9 0.7 0  0.95 0.7 0  1 0.7 0  0 0.75 0  0.05 0.75 0  0.1 0.75 0  0.15 0.75 0  0.2 0.75 0  0.25 0.75 0  0.3 0.75 0  0.35 0.75 0  0.4 0.75 0  0.45 0.75 0  0.5 0.75 0  0.55 0.75 0  0.6 0.75 0  0.65 0.75 0  0.7 0.75 0  0.75 0.75 0  0.8 0.75 0  0.85 0.75 0  0.9 0.75 0  0.95 0.75 0  1 0.75 0  0 0.8 0  0.05 0.8 0  0.1 0.8 0  0.15 0.8 0  0.2 0.8 0  0.25 0.8 0  0.3 0.8 0  0.35 0.8 0  0.4 0.8 0  0.45 0.8 0  0.5 0.8 0  0.55 0.8 0  0.6 0.8 0  0.65 0.8 0  0.7 0.8 0  0.75 0.8 0  0.8 0.8 0  0.85 0.8 0  0.9 0.8 0  0.95 0.8 0  1 0.8 0  0 0.85 0  0.05 0.85 0  0.1 0.85 0  0.15 0.85 0  0.2 0.85 0  0.25 0.85 0  0.3 0.85 0  0.35 0.85 0  0.4 0.85 0  0.45 0.85 0  0.5 0.85 0  0.55 0.85 0  0.6 0.85 0  0.65 0.85 0  0.7 0.85 0  0.75 0.85 0  0.8 0.85 0  0.85 0.85 0  0.9 0.85 0  0.95 0.85 0  1 0.85 0  0 0.9 0  0.05 0.9 0  0.1 0.9 0  0.15 0.9 0  0.2 0.9 0  0.25 0.9 0  0.3 0.9 0  0.35 0.9 0  0.4 0.9 0  0.45 0.9 0  0.5 0.9 0  0.55 0.9 0  0.6 0.9 0  0.65 0.9 0  0.7 0.9 0  0.75 0.9 0  0.8 0.9 0  0.85 0.9 0  0.9 0.9 0  0.95 0.9 0  1 0.9 0  0 0.95 0  0.05 0.95 0  0.1 0.95 0  0.15 0.95 0  0.2 0.95 0  0.25 0.95 0  0.3 0.95 0  0.35 0.95 0  0.4 0.95 0  0.45 0.95 0  0.5 0.95 0  0.55 0.95 0  0.6 0.95 0  0.65 0.95 0  0.7 0.95 0  0.75 0.95 0  0.8 0.95 0  0.85 0.95 0  0.9 0.95 0  0.95 0.95 0  1 0.95 0  0 1 0  0.05 1 0  0.1 1 0  0.15 1 0  0.2 1 0  0.25 1 0  0.3 1 0  0.35 1 0  0.4 1 0  0.45 1 0  0.5 1 0  0.55 1 0  0.6 1 0  0.65 1 0  0.7 1 0  0.75 1 0  0.8 1 0  0.85 1 0  0.9 1 0  0.95 1 0  1 1 0  </DataArray>
</Points>
<Cells>
[...]
<PointData  Vectors="f_137"> 
<DataArray  type="Float64"  Name="f_137"  NumberOfComponents="3" format="ascii">0.0000000000000000e+00 0.0000000000000000e+00 0.0000000000000000e+00  0.0000000000000000e+00 0.0000000000000000e+00 0.0000000000000000e+00  0.0000000000000000e+00 0.0000000000000000e+00 0.0000000000000000e+00  0.0000000000000000e+00 0.0000000000000000e+00 0.0000000000000000e+00  0.0000000000000000e+00 0.0000000000000000e+00 0.0000000000000000e+00  0.0000000000000000e+00 0.0000000000000000e+00 0.0000000000000000e+00  0.0000000000000000e+00 0.0000000000000000e+00 0.0000000000000000e+00  0.0000000000000000e+00 0.0000000000000000e+00 0.0000000000000000e+00  0.0000000000000000e+00 0.0000000000000000e+00 0.0000000000000000e+00  0.0000000000000000e+00 0.0000000000000000e+00 0.0000000000000000e+00  0.0000000000000000e+00 0.0000000000000000e+00 0.0000000000000000e+00  0.0000000000000000e+00 0.0000000000000000e+00 0.0000000000000000e+00  0.0000000000000000e+00 0.0000000000000000e+00 0.0000000000000000e+00  0.0000000000000000e+00 0.0000000000000000e+00 0.0000000000000000e+00  0.0000000000000000e+00 0.0000000000000000e+00 0.0000000000000000e+00  0.0000000000000000e+00 0.0000000000000000e+00 0.0000000000000000e+00  0.0000000000000000e+00 0.0000000000000000e+00 0.0000000000000000e+00  0.0000000000000000e+00 0.0000000000000000e+00 0.0000000000000000e+00  0.0000000000000000e+00 0.0000000000000000e+00 0.0000000000000000e+00  0.0000000000000000e+00 0.0000000000000000e+00 0.0000000000000000e+00  0.0000000000000000e+00 0.0000000000000000e+00 0.0000000000000000e+00  0.0000000000000000e+00 0.0000000000000000e+00 0.0000000000000000e+00  -8.2209156871107015e-04 8.1440205189607824e-04 0.0000000000000000e+00  -2.2975135217787020e-03 9.3559342619539936e-04 0.0000000000000000e+00  -3.7899435063551605e-03 8.9045532919765325e-04 0.0000000000000000e+00  -5.1863555784940384e-03 8.2350359635622553e-04 0.0000000000000000e+00  -6.4552801384909460e-03 7.3609949904134876e-04 0.0000000000000000e+00  -7.5633545609842482e-03 6.2981995651300226e-04 0.0000000000000000e+00  -8.4818007009349588e-03 5.0647226159996987e-04 0.0000000000000000e+00  -9.1852462572061637e-03 3.6815135028880750e-04 0.0000000000000000e+00  -9.6523176580698717e-03 2.1730236979083822e-04 0.0000000000000000e+00  -9.8661563918581961e-03 5.6775323857077933e-05 0.0000000000000000e+00  -9.8150384272853181e-03 -1.1006223127964464e-04 0.0000000000000000e+00  -9.4931692178434456e-03 -2.7920985726919166e-04 0.0000000000000000e+00  -8.9016185854458845e-03 -4.4595799784718956e-04 0.0000000000000000e+00  -8.0493468716069747e-03 -6.0491310568859438e-04 0.0000000000000000e+00  -6.9540044073958971e-03 -7.5014334934830158e-04 0.0000000000000000e+00  -5.6426460777381383e-03 -8.7551780508778119e-04 0.0000000000000000e+00  -4.1513925664361743e-03 -9.7456822522174597e-04 0.0000000000000000e+00  -2.5321626508414004e-03 -1.0308594350784224e-03 0.0000000000000000e+00  -8.9802385896234349e-04 -8.9787738065162746e-04 0.0000000000000000e+00  0.0000000000000000e+00 0.0000000000000000e+00 0.0000000000000000e+00  0.0000000000000000e+00 0.0000000000000000e+00 0.0000000000000000e+00  -9.9712249189470013e-04 2.3250795056339265e-03 0.0000000000000000e+00  -2.7326772603899888e-03 2.6172341576760809e-03 0.0000000000000000e+00  -4.4691786508680234e-03 2.5012057870793837e-03 0.0000000000000000e+00  -6.0979724219517263e-03 2.3095835082735726e-03 0.0000000000000000e+00  -7.5747936526821017e-03 2.0597554844232827e-03 0.0000000000000000e+00  -8.8618425029798175e-03 1.7574002072218388e-03 0.0000000000000000e+00  -9.9261469350465491e-03 1.4081547338940898e-03 0.0000000000000000e+00  -1.0739025613347169e-02 1.0184524114351405e-03 0.0000000000000000e+00  -1.1276642549406708e-02 5.9547340358085538e-04 0.0000000000000000e+00  -1.1520343552760624e-02 1.4732292794805704e-04 0.0000000000000000e+00  -1.1457219187444580e-02 -3.1667414645458037e-04 0.0000000000000000e+00  -1.1080903382453084e-02 -7.8564790330833579e-04 0.0000000000000000e+00  -1.0392607967893996e-02 -1.2469444133809209e-03 0.0000000000000000e+00  -9.4023552004289853e-03 -1.6861178228171124e-03 0.0000000000000000e+00  -8.1299769191623458e-03 -2.0872943654371887e-03 0.0000000000000000e+00  -6.6065285122675673e-03 -2.4338646172723322e-03 0.0000000000000000e+00  -4.8734737250130857e-03 -2.7082498014256331e-03 0.0000000000000000e+00  -2.9893713237245842e-03 -2.8716175415338268e-03 0.0000000000000000e+00  -1.0886549398866519e-03 -2.5707165168964768e-03 0.0000000000000000e+00  0.0000000000000000e+00 0.0000000000000000e+00 0.0000000000000000e+00  0.0000000000000000e+00 0.0000000000000000e+00 0.0000000000000000e+00  -1.0456927819369240e-03 3.9730105610739841e-03 0.0000000000000000e+00  -2.8810992888711989e-03 4.4357081707868647e-03 0.0000000000000000e+00  -4.7145786513554692e-03 4.2383235885145127e-03 0.0000000000000000e+00  -6.4351015511161418e-03 3.9116210780517678e-03 0.0000000000000000e+00  -7.9957258628466036e-03 3.4861852403521589e-03 0.0000000000000000e+00  -9.3579367690404449e-03 2.9722146627851761e-03 0.0000000000000000e+00  -1.0487451909511407e-02 2.3799003988440085e-03 0.0000000000000000e+00  -1.1354642828652482e-02 1.7203400411892524e-03 0.0000000000000000e+00  -1.1934595236687374e-02 1.0056029087245910e-03 0.0000000000000000e+00  -1.2207280809702006e-02 2.4906657423267247e-04 0.0000000000000000e+00  -1.2157994698404544e-02 -5.3403147892999768e-04 0.0000000000000000e+00  -1.1778160694962561e-02 -1.3259384178049478e-03 0.0000000000000000e+00  -1.1066560275263482e-02 -2.1058367006941510e-03 0.0000000000000000e+00  -1.0030974347050175e-02 -2.8496689046236998e-03 0.0000000000000000e+00  -8.6897666856730685e-03 -3.5305970582874793e-03 0.0000000000000000e+00  -7.0739751202239607e-03 -4.1201248810543312e-03 0.0000000000000000e+00  -5.2266048494522934e-03 -4.5877726422632872e-03 0.0000000000000000e+00  -3.2104925323765288e-03 -4.8716037668872728e-03 0.0000000000000000e+00  -1.1703445177304141e-03 -4.3864154368489878e-03 0.0000000000000000e+00  0.0000000000000000e+00 0.0000000000000000e+00 0.0000000000000000e+00  0.0000000000000000e+00 0.0000000000000000e+00 0.0000000000000000e+00  -1.1199129984064699e-03 5.7182632009396455e-03 0.0000000000000000e+00  -3.0869716751957621e-03 6.3684605965599788e-03 0.0000000000000000e+00  -5.0526249149485739e-03 6.0852976401221948e-03 0.0000000000000000e+00  -6.8971194747714411e-03 5.6157687257828897e-03 0.0000000000000000e+00  -8.5711400115723035e-03 5.0052307231835107e-03 0.0000000000000000e+00  -1.0034792772371371e-02 4.2690375844966115e-03 0.0000000000000000e+00  -1.1252665456802811e-02 3.4220861254631888e-03 0.0000000000000000e+00  -1.2194239385287778e-02 2.4800904263932223e-03 0.0000000000000000e+00  -1.2833451461544999e-02 1.4596995495781292e-03 0.0000000000000000e+00  -1.3148547344721852e-02 3.7900293309651436e-04 0.0000000000000000e+00  -1.3122243852398442e-02 -7.4152655056039312e-04 0.0000000000000000e+00  -1.2742480661024017e-02 -1.8778345575718432e-03 0.0000000000000000e+00  -1.2003903805382582e-02 -3.0011508334523147e-03 0.0000000000000000e+00  -1.0910152687901216e-02 -4.0773589774513504e-03 0.0000000000000000e+00  -9.4763767932437397e-03 -5.0673545988463862e-03 0.0000000000000000e+00  -7.7326147694581383e-03 -5.9285721584596031e-03 0.0000000000000000e+00  -5.7237640858872835e-03 -6.6150693614628235e-03 0.0000000000000000e+00  -3.5195621215171171e-03 -7.0375769705382655e-03 0.0000000000000000e+00  -1.2827088948772351e-03 -6.3561705284787664e-03 0.0000000000000000e+00  0.0000000000000000e+00 0.0000000000000000e+00 0.0000000000000000e+00  0.0000000000000000e+00 0.0000000000000000e+00 0.0000000000000000e+00  -1.2225962126180552e-03 7.6081782053539805e-03 0.0000000000000000e+00  -3.3701192350787273e-03 8.4601876811022728e-03 0.0000000000000000e+00  -5.5156605656317423e-03 8.0831796346212022e-03 0.0000000000000000e+00  -7.5280935697812782e-03 7.4591419146337167e-03 0.0000000000000000e+00  -9.3550852981676182e-03 6.6498631454953413e-03 0.0000000000000000e+00  -1.0954909344266491e-02 5.6765405848591150e-03 0.0000000000000000e+00  -1.2291216885420425e-02 4.5591943373067666e-03 0.0000000000000000e+00  -1.3332879164360753e-02 3.3181711107351059e-03 0.0000000000000000e+00  -1.4052919823192084e-02 1.9741847136531404e-03 0.0000000000000000e+00  -1.4427735812143331e-02 5.4906377890252855e-04 0.0000000000000000e+00  -1.4436742453147499e-02 -9.3273272858355658e-04 0.0000000000000000e+00  -1.4062901404686757e-02 -2.4420565628036567e-03 0.0000000000000000e+00  -1.3294444068143627e-02 -3.9428992536272335e-03 0.0000000000000000e+00  -1.2128047480217318e-02 -5.3907908168116352e-03 0.0000000000000000e+00  -1.0572837158782379e-02 -6.7326198691890224e-03 0.0000000000000000e+00  -8.6559636654258889e-03 -7.9084415828724677e-03 0.0000000000000000e+00  -6.4241075172170852e-03 -8.8521086007905519e-03 0.0000000000000000e+00  -3.9568868558132950e-03 -9.4400110960345240e-03 0.0000000000000000e+00  -1.4426435498034588e-03 -8.5445190705000350e-03 0.0000000000000000e+00  0.0000000000000000e+00 0.0000000000000000e+00 0.0000000000000000e+00  0.0000000000000000e+00 0.0000000000000000e+00 0.0000000000000000e+00  -1.3567779033440387e-03 9.6896616405989077e-03 0.0000000000000000e+00  -3.7393824763048587e-03 1.0762193407979693e-02 0.0000000000000000e+00  -6.1173104063794986e-03 1.0280512462852326e-02 0.0000000000000000e+00  -8.3453023375183524e-03 9.4857371627746732e-03 0.0000000000000000e+00  -1.0367115185492982e-02 8.4588308490025077e-03 0.0000000000000000e+00  -1.2139199143201893e-02 7.2283190602361116e-03 0.0000000000000000e+00  -1.3624913001694166e-02 5.8202084528035320e-03 0.0000000000000000e+00  -1.4793462126201586e-02 4.2595608980207193e-03 0.0000000000000000e+00  -1.5617845624681048e-02 2.5703983774926511e-03 0.0000000000000000e+00  -1.6073026857017537e-02 7.7674001296613808e-04 0.0000000000000000e+00  -1.6134654555398503e-02 -1.0950984903264304e-03 0.0000000000000000e+00  -1.5779005182023808e-02 -3.0131515348338542e-03 0.0000000000000000e+00  -1.4984761195389171e-02 -4.9359141586325398e-03 0.0000000000000000e+00  -1.3737264328781093e-02 -6.8088848810965805e-03 0.0000000000000000e+00  -1.2034718390516026e-02 -8.5629443067848521e-03 0.0000000000000000e+00  -9.8974068214154956e-03 -1.0115899944440204e-02 0.0000000000000000e+00  -7.3722991968183989e-03 -1.1373827822053562e-02 0.0000000000000000e+00  -4.5518321168812577e-03 -1.2167746223102058e-02 0.0000000000000000e+00  -1.6610922394688489e-03 -1.1035913595037083e-02 0.0000000000000000e+00  0.0000000000000000e+00 0.0000000000000000e+00 0.0000000000000000e+00  0.0000000000000000e+00 0.0000000000000000e+00 0.0000000000000000e+00  -1.5268886410774931e-03 1.2017126294815699e-02 0.0000000000000000e+00  -4.2062610352622742e-03 1.3332371102711248e-02 0.0000000000000000e+00  -6.8750023573578333e-03 1.2729903947892075e-02 0.0000000000000000e+00  -9.3699602071029460e-03 1.1741526678051563e-02 0.0000000000000000e+00  -1.1630154975025462e-02 1.0471346050218681e-02 0.0000000000000000e+00  -1.3610786644849356e-02 8.9575490655857282e-03 0.0000000000000000e+00  -1.5276394847542467e-02 7.2335654934375616e-03 0.0000000000000000e+00  -1.6598497722225793e-02 5.3294441474136768e-03 0.0000000000000000e+00  -1.7552028174665314e-02 3.2714789141335241e-03 0.0000000000000000e+00  -1.8111889930295177e-02 1.0835458489047822e-03 0.0000000000000000e+00  -1.8250122698931743e-02 -1.2096035237271828e-03 0.0000000000000000e+00  -1.7934617717620508e-02 -3.5772096853681264e-03 0.0000000000000000e+00  -1.7130395734275449e-02 -5.9759969159485843e-03 0.0000000000000000e+00  -1.5804799522390715e-02 -8.3433764135493124e-03 0.0000000000000000e+00  -1.3936664198452324e-02 -1.0592505942476339e-02 0.0000000000000000e+00  -1.1531508858353735e-02 -1.2612162242583314e-02 0.0000000000000000e+00  -8.6322398729583791e-03 -1.4268777263058662e-02 0.0000000000000000e+00  -5.3471915004535990e-03 -1.5330503215166241e-02 0.0000000000000000e+00  -1.9541279148606074e-03 -1.3936040842937557e-02 0.0000000000000000e+00  0.0000000000000000e+00 0.0000000000000000e+00 0.0000000000000000e+00  0.0000000000000000e+00 0.0000000000000000e+00 0.0000000000000000e+00  -1.7395115491772634e-03 1.4653419567823057e-02 0.0000000000000000e+00  -4.7876689466835650e-03 1.6236297897092248e-02 0.0000000000000000e+00  -7.8135053437394415e-03 1.5489497310835423e-02 0.0000000000000000e+00  -1.0631228382973862e-02 1.4275401280046961e-02 0.0000000000000000e+00  -1.3174460659448172e-02 1.2727179491350252e-02 0.0000000000000000e+00  -1.5398531770921481e-02 1.0896459350784446e-02 0.0000000000000000e+00  -1.7271944437898597e-02 8.8264482900738093e-03 0.0000000000000000e+00  -1.8772061884601111e-02 6.5527734476551937e-03 0.0000000000000000e+00  -1.9879343233879535e-02 4.1026707629548270e-03 0.0000000000000000e+00  -2.0571560019609150e-02 1.4965998625569772e-03 0.0000000000000000e+00  -2.0818617398888403e-02 -1.2474155726537757e-03 0.0000000000000000e+00  -2.0579031278630051e-02 -4.1066110057499687e-03 0.0000000000000000e+00  -1.9799215745780439e-02 -7.0432228571354980e-03 0.0000000000000000e+00  -1.8418672885332998e-02 -9.9917904562161243e-03 0.0000000000000000e+00  -1.6382707109548596e-02 -1.2847644253471076e-02 0.0000000000000000e+00  -1.3667098590733241e-02 -1.5462175672870842e-02 0.0000000000000000e+00  -1.0300290268607688e-02 -1.7644109497771052e-02 0.0000000000000000e+00  -6.4085339843568540e-03 -1.9069731267064124e-02 0.0000000000000000e+00  -2.3464113185706370e-03 -1.7383267675721539e-02 0.0000000000000000e+00  0.0000000000000000e+00 0.0000000000000000e+00 0.0000000000000000e+00  0.0000000000000000e+00 0.0000000000000000e+00 0.0000000000000000e+00  -2.0046750867923320e-03 1.7674124716651540e-02 0.0000000000000000e+00  -5.5086453742465074e-03 1.9550783997619378e-02 0.0000000000000000e+00  -8.9685075419383784e-03 1.8624447930687345e-02 0.0000000000000000e+00  -1.2169758824881728e-02 1.7138653790946881e-02 0.0000000000000000e+00  -1.5040305750483887e-02 1.5264649301956323e-02 0.0000000000000000e+00  -1.7538400531866720e-02 1.3073414299285916e-02 0.0000000000000000e+00  -1.9641304362598838e-02 1.0621558255217455e-02 0.0000000000000000e+00  -2.1337992707970689e-02 7.9513397838303426e-03 0.0000000000000000e+00  -2.2620313861552655e-02 5.0893911787812550e-03 0.0000000000000000e+00  -2.3474218004400582e-02 2.0484887998104117e-03 0.0000000000000000e+00  -2.3871590026090180e-02 -1.1675435840552779e-03 0.0000000000000000e+00  -2.3762388030519561e-02 -4.5544910264019708e-03 0.0000000000000000e+00  -2.3069226022435382e-02 -8.0921365741854281e-03 0.0000000000000000e+00  -2.1691110880036737e-02 -1.1723631206946111e-02 0.0000000000000000e+00  -1.9517721054259241e-02 -1.5333895991446718e-02 0.0000000000000000e+00  -1.6466371547357216e-02 -1.8730486288170031e-02 0.0000000000000000e+00  -1.2525807500200726e-02 -2.1634610062250082e-02 0.0000000000000000e+00  -7.8383124304494296e-03 -2.3576850320256807e-02 0.0000000000000000e+00  -2.8756308634354816e-03 -2.1565632173108060e-02 0.0000000000000000e+00  0.0000000000000000e+00 0.0000000000000000e+00 0.0000000000000000e+00  0.0000000000000000e+00 0.0000000000000000e+00 0.0000000000000000e+00  -2.3380350771483216e-03 2.1174066785648496e-02 0.0000000000000000e+00  -6.4071674393226773e-03 2.3368565244516165e-02 0.0000000000000000e+00  -1.0392579784785923e-02 2.2208742769888951e-02 0.0000000000000000e+00  -1.4043232685242308e-02 2.0384025842987322e-02 0.0000000000000000e+00  -1.7282008104408293e-02 1.8117523591093965e-02 0.0000000000000000e+00  -2.0075419141308299e-02 1.5508545719151402e-02 0.0000000000000000e+00  -2.2417381131081968e-02 1.2632301187219091e-02 0.0000000000000000e+00  -2.4317265152050384e-02 9.5392294360102624e-03 0.0000000000000000e+00  -2.5787071304772327e-02 6.2536176946463738e-03 0.0000000000000000e+00  -2.6829815969455380e-02 2.7752335936553291e-03 0.0000000000000000e+00  -2.7427084219890752e-02 -9.1536253480102201e-04 0.0000000000000000e+00  -2.7523655493118047e-02 -4.8446981763894479e-03 0.0000000000000000e+00  -2.7019327175795329e-02 -9.0301193860196690e-03 0.0000000000000000e+00  -2.5761629283297619e-02 -1.3456160984720219e-02 0.0000000000000000e+00  -2.3547150385747329e-02 -1.8023445449692244e-02 0.0000000000000000e+00  -2.0176410820840047e-02 -2.2483658418581073e-02 0.0000000000000000e+00  -1.5543796243401319e-02 -2.6413631246713084e-02 0.0000000000000000e+00  -9.8005321112094659e-03 -2.9111219775451055e-02 0.0000000000000000e+00  -3.6038533105565073e-03 -2.6745581274618308e-02 0.0000000000000000e+00  0.0000000000000000e+00 0.0000000000000000e+00 0.0000000000000000e+00  0.0000000000000000e+00 0.0000000000000000e+00 0.0000000000000000e+00  -2.7649059979748692e-03 2.5277973710418775e-02 0.0000000000000000e+00  -7.5425855603971888e-03 2.7805488618013699e-02 0.0000000000000000e+00  -1.2165090326337901e-02 2.6327268570871202e-02 0.0000000000000000e+00  -1.6335117817965584e-02 2.4063155506651151e-02 0.0000000000000000e+00  -1.9973955478205286e-02 2.1309368574689760e-02 0.0000000000000000e+00  -2.3066494776794226e-02 1.8206610303759127e-02 0.0000000000000000e+00  -2.5635997394795607e-02 1.4855283233793128e-02 0.0000000000000000e+00  -2.7724826753129216e-02 1.1315499405476425e-02 0.0000000000000000e+00  -2.9377397821264601e-02 7.6069489763855250e-03 0.0000000000000000e+00  -3.0626309398527847e-02 3.7115247009793604e-03 0.0000000000000000e+00  -3.1472344290132362e-02 -4.1992989499669013e-04 0.0000000000000000e+00  -3.1871692839086994e-02 -4.8651177747135463e-03 0.0000000000000000e+00  -3.1724225727200531e-02 -9.7292157598304722e-03 0.0000000000000000e+00  -3.0796764067809897e-02 -1.5083078773264457e-02 0.0000000000000000e+00  -2.8742114873596725e-02 -2.0837381951678845e-02 0.0000000000000000e+00  -2.5161997258274480e-02 -2.6703013734815966e-02 0.0000000000000000e+00  -1.9744667112719529e-02 -3.2121843891772348e-02 0.0000000000000000e+00  -1.2587820920724956e-02 -3.6035221970066526e-02 0.0000000000000000e+00  -4.6463075844782051e-03 -3.3354412614319193e-02 0.0000000000000000e+00  0.0000000000000000e+00 0.0000000000000000e+00 0.0000000000000000e+00  0.0000000000000000e+00 0.0000000000000000e+00 0.0000000000000000e+00  -3.3279401573802609e-03 3.0158532068314078e-02 0.0000000000000000e+00  -9.0107554615249663e-03 3.3011332362881722e-02 0.0000000000000000e+00  -1.4408881505026160e-02 3.1077420470557497e-02 0.0000000000000000e+00  -1.9168241142914572e-02 2.8220782932522458e-02 0.0000000000000000e+00  -2.3218996840609220e-02 2.4843763138725727e-02 0.0000000000000000e+00  -2.6583817208571520e-02 2.1146080761584304e-02 0.0000000000000000e+00  -2.9335443651392241e-02 1.7259665374585047e-02 0.0000000000000000e+00  -3.1566361914195144e-02 1.3253818540796852e-02 0.0000000000000000e+00  -3.3368418571088250e-02 9.1406320584842739e-03 0.0000000000000000e+00  -3.4815078125633794e-02 4.8819624985956805e-03 0.0000000000000000e+00  -3.5943680276983338e-02 3.9020088513045146e-04 0.0000000000000000e+00  -3.6775600194460030e-02 -4.4951069421580300e-03 0.0000000000000000e+00  -3.7196997594404889e-02 -9.9460713456463751e-03 0.0000000000000000e+00  -3.6868529144135610e-02 -1.6078688417339386e-02 0.0000000000000000e+00  -3.5433869977284579e-02 -2.3071122461005726e-02 0.0000000000000000e+00  -3.2076977914573070e-02 -3.1056799704781850e-02 0.0000000000000000e+00  -2.5897811175956721e-02 -3.9128014876057375e-02 0.0000000000000000e+00  -1.6701671787226029e-02 -4.5196947605924000e-02 0.0000000000000000e+00  -6.1395142352753335e-03 -4.2102231469855568e-02 0.0000000000000000e+00  0.0000000000000000e+00 0.0000000000000000e+00 0.0000000000000000e+00  0.0000000000000000e+00 0.0000000000000000e+00 0.0000000000000000e+00  -4.1025692219188682e-03 3.6067797351959252e-02 0.0000000000000000e+00  -1.0971964077919087e-02 3.9186194206066012e-02 0.0000000000000000e+00  -1.7318681857558586e-02 3.6567916310228356e-02 0.0000000000000000e+00  -2.2725128492224463e-02 3.2881918305492669e-02 0.0000000000000000e+00  -2.7158692038604000e-02 2.8687329715834920e-02 0.0000000000000000e+00  -3.0717418640953807e