<?xml version="1.0"?>
<VTKFile type="UnstructuredGrid"  version="0.1"  >
<UnstructuredGrid>
<Piece  NumberOfPoints="441" NumberOfCells="800">
<Points>
<DataArray  type="Float64"  NumberOfComponents="3"  format="ascii">0 0 0  0.05 0 0  0.1 0 0  0.15 0 0  0.2 0 0  0.25 0 0  0.3 0 0  0.35 0 0  0.4 0 0  0.45 0 0  0.5 0 0  0.55 0 0  0.6 0 0  0.65 0 0  0.7 0 0  0.75 0 0  0.8 0 0  0.85 0 0  0.9 0 0  0.95 0 0  1 0 0  0 0.05 0  0.05 0.05 0  0.1 0.05 0  0.15 0.05 0  0.2 0.05 0  0.25 0.05 0  0.3 0.05 0  0.35 0.05 0  0.4 0.05 0  0.45 0.05 0  0.5 0.05 0  0.55 0.05 0  0.6 0.05 0  0.65 0.05 0  0.7 0.05 0  0.75 0.05 0  0.8 0.05 0  0.85 0.05 0  0.9 0.05 0  0.95 0.05 0  1 0.05 0  0 0.1 0  0.05 0.1 0  0.1 0.1 0  0.15 0.1 0  0.2 0.1 0  0.25 0.1 0  0.3 0.1 0  0.35 0.1 0  0.4 0.1 0  0.45 0.1 0  0.5 0.1 0  0.55 0.1 0  0.6 0.1 0  0.65 0.1 0  0.7 0.1 0  0.75 0.1 0  0.8 0.1 0  0.85 0.1 0  0.9 0.1 0  0.95 0.1 0  1 0.1 0  0 0.15 0  0.05 0.15 0  0.1 0.15 0  0.15 0.15 0  0.2 0.15 0  0.25 0.15 0  0.3 0.15 0  0.35 0.15 0  0.4 0.15 0  0.45 0.15 0  0.5 0.15 0  0.55 0.15 0  0.6 0.15 0  0.65 0.15 0  0.7 0.15 0  0.75 0.15 0  0.8 0.15 0  0.85 0.15 0  0.9 0.15 0  0.95 0.15 0  1 0.15 0  0 0.2 0  0.05 0.2 0  0.1 0.2 0  0.15 0.2 0  0.2 0.2 0  0.25 0.2 0  0.3 0.2 0  0.35 0.2 0  0.4 0.2 0  0.45 0.2 0  0.5 0.2 0  0.55 0.2 0  0.6 0.2 0  0.65 0.2 0  0.7 0.2 0  0.75 0.2 0  0.8 0.2 0  0.85 0.2 0  0.9 0.2 0  0.95 0.2 0  1 0.2 0  0 0.25 0  0.05 0.25 0  0.1 0.25 0  0.15 0.25 0  0.2 0.25 0  0.25 0.25 0  0.3 0.25 0  0.35 0.25 0  0.4 0.25 0  0.45 0.25 0  0.5 0.25 0  0.55 0.25 0  0.6 0.25 0  0.65 0.25 0  0.7 0.25 0  0.75 0.25 0  0.8 0.25 0  0.85 0.25 0  0.9 0.25 0  0.95 0.25 0  1 0.25 0  0 0.3 0  0.05 0.3 0  0.1 0.3 0  0.15 0.3 0  0.2 0.3 0  0.25 0.3 0  0.3 0.3 0  0.35 0.3 0  0.4 0.3 0  0.45 0.3 0  0.5 0.3 0  0.55 0.3 0  0.6 0.3 0  0.65 0.3 0  0.7 0.3 0  0.75 0.3 0  0.8 0.3 0  0.85 0.3 0  0.9 0.3 0  0.95 0.3 0  1 0.3 0  0 0.35 0  0.05 0.35 0  0.1 0.35 0  0.15 0.35 0  0.2 0.35 0  0.25 0.35 0  0.3 0.35 0  0.35 0.35 0  0.4 0.35 0  0.45 0.35 0  0.5 0.35 0  0.55 0.35 0  0.6 0.35 0  0.65 0.35 0  0.7 0.35 0  0.75 0.35 0  0.8 0.35 0  0.85 0.35 0  0.9 0.35 0  0.95 0.35 0  1 0.35 0  0 0.4 0  0.05 0.4 0  0.1 0.4 0  0.15 0.4 0  0.2 0.4 0  0.25 0.4 0  0.3 0.4 0  0.35 0.4 0  0.4 0.4 0  0.45 0.4 0  0.5 0.4 0  0.55 0.4 0  0.6 0.4 0  0.65 0.4 0  0.7 0.4 0  0.75 0.4 0  0.8 0.4 0  0.85 0.4 0  0.9 0.4 0  0.95 0.4 0  1 0.4 0  0 0.45 0  0.05 0.45 0  0.1 0.45 0  0.15 0.45 0  0.2 0.45 0  0.25 0.45 0  0.3 0.45 0  0.35 0.45 0  0.4 0.45 0  0.45 0.45 0  0.5 0.45 0  0.55 0.45 0  0.6 0.45 0  0.65 0.45 0  0.7 0.45 0  0.75 0.45 0  0.8 0.45 0  0.85 0.45 0  0.9 0.45 0  0.95 0.45 0  1 0.45 0  0 0.5 0  0.05 0.5 0  0.1 0.5 0  0.15 0.5 0  0.2 0.5 0  0.25 0.5 0  0.3 0.5 0  0.35 0.5 0  0.4 0.5 0  0.45 0.5 0  0.5 0.5 0  0.55 0.5 0  0.6 0.5 0  0.65 0.5 0  0.7 0.5 0  0.75 0.5 0  0.8 0.5 0  0.85 0.5 0  0.9 0.5 0  0.95 0.5 0  1 0.5 0  0 0.55 0  0.05 0.55 0  0.1 0.55 0  0.15 0.55 0  0.2 0.55 0  0.25 0.55 0  0.3 0.55 0  0.35 0.55 0  0.4 0.55 0  0.45 0.55 0  0.5 0.55 0  0.55 0.55 0  0.6 0.55 0  0.65 0.55 0  0.7 0.55 0  0.75 0.55 0  0.8 0.55 0  0.85 0.55 0  0.9 0.55 0  0.95 0.55 0  1 0.55 0  0 0.6 0  0.05 0.6 0  0.1 0.6 0  0.15 0.6 0  0.2 0.6 0  0.25 0.6 0  0.3 0.6 0  0.35 0.6 0  0.4 0.6 0  0.45 0.6 0  0.5 0.6 0  0.55 0.6 0  0.6 0.6 0  0.65 0.6 0  0.7 0.6 0  0.75 0.6 0  0.8 0.6 0  0.85 0.6 0  0.9 0.6 0  0.95 0.6 0  1 0.6 0  0 0.65 0  0.05 0.65 0  0.1 0.65 0  0.15 0.65 0  0.2 0.65 0  0.25 0.65 0  0.3 0.65 0  0.35 0.65 0  0.4 0.65 0  0.45 0.65 0  0.5 0.65 0  0.55 0.65 0  0.6 0.65 0  0.65 0.65 0  0.7 0.65 0  0.75 0.65 0  0.8 0.65 0  0.85 0.65 0  0.9 0.65 0  0.95 0.65 0  1 0.65 0  0 0.7 0  0.05 0.7 0  0.1 0.7 0  0.15 0.7 0  0.2 0.7 0  0.25 0.7 0  0.3 0.7 0  0.35 0.7 0  0.4 0.7 0  0.45 0.7 0  0.5 0.7 0  0.55 0.7 0  0.6 0.7 0  0.65 0.7 0  0.7 0.7 0  0.75 0.7 0  0.8 0.7 0  0.85 0.7 0  0.9 0.7 0  0.95 0.7 0  1 0.7 0  0 0.75 0  0.05 0.75 0  0.1 0.75 0  0.15 0.75 0  0.2 0.75 0  0.25 0.75 0  0.3 0.75 0  0.35 0.75 0  0.4 0.75 0  0.45 0.75 0  0.5 0.75 0  0.55 0.75 0  0.6 0.75 0  0.65 0.75 0  0.7 0.75 0  0.75 0.75 0  0.8 0.75 0  0.85 0.75 0  0.9 0.75 0  0.95 0.75 0  1 0.75 0  0 0.8 0  0.05 0.8 0  0.1 0.8 0  0.15 0.8 0  0.2 0.8 0  0.25 0.8 0  0.3 0.8 0  0.35 0.8 0  0.4 0.8 0  0.45 0.8 0  0.5 0.8 0  0.55 0.8 0  0.6 0.8 0  0.65 0.8 0  0.7 0.8 0  0.75 0.8 0  0.8 0.8 0  0.85 0.8 0  0.9 0.8 0  0.95 0.8 0  1 0.8 0  0 0.85 0  0.05 0.85 0  0.1 0.85 0  0.15 0.85 0  0.2 0.85 0  0.25 0.85 0  0.3 0.85 0  0.35 0.85 0  0.4 0.85 0  0.45 0.85 0  0.5 0.85 0  0.55 0.85 0  0.6 0.85 0  0.65 0.85 0  0.7 0.85 0  0.75 0.85 0  0.8 0.85 0  0.85 0.85 0  0.9 0.85 0  0.95 0.85 0  1 0.85 0  0 0.9 0  0.05 0.9 0  0.1 0.9 0  0.15 0.9 0  0.2 0.9 0  0.25 0.9 0  0.3 0.9 0  0.35 0.9 0  0.4 0.9 0  0.45 0.9 0  0.5 0.9 0  0.55 0.9 0  0.6 0.9 0  0.65 0.9 0  0.7 0.9 0  0.75 0.9 0  0.8 0.9 0  0.85 0.9 0  0.9 0.9 0  0.95 0.9 0  1 0.9 0  0 0.95 0  0.05 0.95 0  0.1 0.95 0  0.15 0.95 0  0.2 0.95 0  0.25 0.95 0  0.3 0.95 0  0.35 0.95 0  0.4 0.95 0  0.45 0.95 0  0.5 0.95 0  0.55 0.95 0  0.6 0.95 0  0.65 0.95 0  0.7 0.95 0  0.75 0.95 0  0.8 0.95 0  0.85 0.95 0  0.9 0.95 0  0.95 0.95 0  1 0.95 0  0 1 0  0.05 1 0  0.1 1 0  0.15 1 0  0.2 1 0  0.25 1 0  0.3 1 0  0.35 1 0  0.4 1 0  0.45 1 0  0.5 1 0  0.55 1 0  0.6 1 0  0.65 1 0  0.7 1 0  0.75 1 0  0.8 1 0  0.85 1 0  0.9 1 0  0.95 1 0  1 1 0  </DataArray>
</Points>
<Cells>
[...]
<PointData  Vectors="f_137"> 
<DataArray  type="Float64"  Name="f_137"  NumberOfComponents="3" format="ascii">0.0000000000000000e+00 0.0000000000000000e+00 0.0000000000000000e+00  0.0000000000000000e+00 0.0000000000000000e+00 0.0000000000000000e+00  0.0000000000000000e+00 0.0000000000000000e+00 0.0000000000000000e+00  0.0000000000000000e+00 0.0000000000000000e+00 0.0000000000000000e+00  0.0000000000000000e+00 0.0000000000000000e+00 0.0000000000000000e+00  0.0000000000000000e+00 0.0000000000000000e+00 0.0000000000000000e+00  0.0000000000000000e+00 0.0000000000000000e+00 0.0000000000000000e+00  0.0000000000000000e+00 0.0000000000000000e+00 0.0000000000000000e+00  0.0000000000000000e+00 0.0000000000000000e+00 0.0000000000000000e+00  0.0000000000000000e+00 0.0000000000000000e+00 0.0000000000000000e+00  0.0000000000000000e+00 0.0000000000000000e+00 0.0000000000000000e+00  0.0000000000000000e+00 0.0000000000000000e+00 0.0000000000000000e+00  0.0000000000000000e+00 0.0000000000000000e+00 0.0000000000000000e+00  0.0000000000000000e+00 0.0000000000000000e+00 0.0000000000000000e+00  0.0000000000000000e+00 0.0000000000000000e+00 0.0000000000000000e+00  0.0000000000000000e+00 0.0000000000000000e+00 0.0000000000000000e+00  0.0000000000000000e+00 0.0000000000000000e+00 0.0000000000000000e+00  0.0000000000000000e+00 0.0000000000000000e+00 0.0000000000000000e+00  0.0000000000000000e+00 0.0000000000000000e+00 0.0000000000000000e+00  0.0000000000000000e+00 0.0000000000000000e+00 0.0000000000000000e+00  0.0000000000000000e+00 0.0000000000000000e+00 0.0000000000000000e+00  0.0000000000000000e+00 0.0000000000000000e+00 0.0000000000000000e+00  -8.1981191004150704e-04 8.1214604669150941e-04 0.0000000000000000e+00  -2.3010240784596659e-03 9.3887070524592846e-04 0.0000000000000000e+00  -3.8036971334030017e-03 8.9434403765972228e-04 0.0000000000000000e+00  -5.2103734683590667e-03 8.2755157042694032e-04 0.0000000000000000e+00  -6.4893774265583591e-03 7.4026919127648532e-04 0.0000000000000000e+00  -7.6070863978766881e-03 6.3401238849060664e-04 0.0000000000000000e+00  -8.5344459792409556e-03 5.1053866937429433e-04 0.0000000000000000e+00  -9.2457498301343945e-03 3.7189603218546255e-04 0.0000000000000000e+00  -9.7192455073187387e-03 2.2049248139594993e-04 0.0000000000000000e+00  -9.9376706612962825e-03 5.9155365664923307e-05 0.0000000000000000e+00  -9.8888994417698998e-03 -1.0874955477220746e-04 0.0000000000000000e+00  -9.5667739124321634e-03 -2.7919695032017065e-04 0.0000000000000000e+00  -8.9720817983184268e-03 -4.4742153332287120e-04 0.0000000000000000e+00  -8.1136306380984891e-03 -6.0794301707679853e-04 0.0000000000000000e+00  -7.0090878775012156e-03 -7.5471723142445145e-04 0.0000000000000000e+00  -5.6857296962501223e-03 -8.8148287548222226e-04 0.0000000000000000e+00  -4.1801361851561969e-03 -9.8157645760156434e-04 0.0000000000000000e+00  -2.5451386457328042e-03 -1.0379424370202750e-03 0.0000000000000000e+00  -8.9907884946145017e-04 -8.9905600295654676e-04 0.0000000000000000e+00  0.0000000000000000e+00 0.0000000000000000e+00 0.0000000000000000e+00  0.0000000000000000e+00 0.0000000000000000e+00 0.0000000000000000e+00  -1.0004984189202241e-03 2.3287984980787380e-03 0.0000000000000000e+00  -2.7514020949612398e-03 2.6354813042603772e-03 0.0000000000000000e+00  -4.5072810852642819e-03 2.5207621915950312e-03 0.0000000000000000e+00  -6.1549875249503859e-03 2.3287823561495453e-03 0.0000000000000000e+00  -7.6497082984338886e-03 2.0781752514801737e-03 0.0000000000000000e+00  -8.9531489754115651e-03 1.7745812691285037e-03 0.0000000000000000e+00  -1.0031893380564755e-02 1.4235453556046608e-03 0.0000000000000000e+00  -1.0856783690505478e-02 1.0314223704238059e-03 0.0000000000000000e+00  -1.1403497170906159e-02 6.0533675018066915e-04 0.0000000000000000e+00  -1.1652896649192829e-02 1.5337513296363530e-04 0.0000000000000000e+00  -1.1591620316803754e-02 -3.1510281561488763e-04 0.0000000000000000e+00  -1.1212918057111450e-02 -7.8912358900350588e-04 0.0000000000000000e+00  -1.0517732599002733e-02 -1.2558498137365097e-03 0.0000000000000000e+00  -9.5159876252178966e-03 -1.7005702839886113e-03 0.0000000000000000e+00  -8.2276362392648180e-03 -2.1070760996972073e-03 0.0000000000000000e+00  -6.6841112930090844e-03 -2.4583775304143130e-03 0.0000000000000000e+00  -4.9276167720025818e-03 -2.7363451477534209e-03 0.0000000000000000e+00  -3.0178830446854067e-03 -2.9004745385510697e-03 0.0000000000000000e+00  -1.0953472641502266e-03 -2.5836790618193207e-03 0.0000000000000000e+00  0.0000000000000000e+00 0.0000000000000000e+00 0.0000000000000000e+00  0.0000000000000000e+00 0.0000000000000000e+00 0.0000000000000000e+00  -1.0494241580857970e-03 3.9873924978047325e-03 0.0000000000000000e+00  -2.9015359975929468e-03 4.4737701492747620e-03 0.0000000000000000e+00  -4.7557428246683539e-03 4.2780537230242780e-03 0.0000000000000000e+00  -6.4965332970739987e-03 3.9501858918665061e-03 0.0000000000000000e+00  -8.0763814476798555e-03 3.5226616350866029e-03 0.0000000000000000e+00  -9.4562915216194945e-03 3.0056817350187248e-03 0.0000000000000000e+00  -1.0601513602947971e-02 2.4093257641986487e-03 0.0000000000000000e+00  -1.1481916332907724e-02 1.7445924308435172e-03 0.0000000000000000e+00  -1.2072058951640647e-02 1.0234837875982511e-03 0.0000000000000000e+00  -1.2351373632754126e-02 2.5936740852650509e-04 0.0000000000000000e+00  -1.2304628205184114e-02 -5.3244399150960181e-04 0.0000000000000000e+00  -1.1922770821388384e-02 -1.3340087203627458e-03 0.0000000000000000e+00  -1.1204213278895585e-02 -2.1241840770475869e-03 0.0000000000000000e+00  -1.0156543591157086e-02 -2.8784429823233548e-03 0.0000000000000000e+00  -8.7981784916452890e-03 -3.5693492163343522e-03 0.0000000000000000e+00  -7.1605181241632026e-03 -4.1677171087856979e-03 0.0000000000000000e+00  -5.2873489616935354e-03 -4.6421181321415527e-03 0.0000000000000000e+00  -3.2427478358425929e-03 -4.9276946751140140e-03 0.0000000000000000e+00  -1.1781577173004948e-03 -4.4160123397559087e-03 0.0000000000000000e+00  0.0000000000000000e+00 0.0000000000000000e+00 0.0000000000000000e+00  0.0000000000000000e+00 0.0000000000000000e+00 0.0000000000000000e+00  -1.1234484384443320e-03 5.7434806610798693e-03 0.0000000000000000e+00  -3.1077955384607664e-03 6.4271713658896022e-03 0.0000000000000000e+00  -5.0951324062414429e-03 6.1461142638882943e-03 0.0000000000000000e+00  -6.9609338101977898e-03 5.6746621442668151e-03 0.0000000000000000e+00  -8.6553178317104618e-03 5.0607986183322535e-03 0.0000000000000000e+00  -1.0137931642657742e-02 4.3199031035504720e-03 0.0000000000000000e+00  -1.1372889747358870e-02 3.4667248484713297e-03 0.0000000000000000e+00  -1.2329148309835329e-02 2.5168383795924365e-03 0.0000000000000000e+00  -1.2980067249685414e-02 1.4867908212333686e-03 0.0000000000000000e+00  -1.3303270235263292e-02 3.9464261200564701e-04 0.0000000000000000e+00  -1.3280827354797351e-02 -7.3904638465146014e-04 0.0000000000000000e+00  -1.2900047375380487e-02 -1.8899713323162163e-03 0.0000000000000000e+00  -1.2155025761630939e-02 -3.0289047178963797e-03 0.0000000000000000e+00  -1.1049026830278513e-02 -4.1210415069072867e-03 0.0000000000000000e+00  -9.5971047370126353e-03 -5.1263697835713471e-03 0.0000000000000000e+00  -7.8295875525486516e-03 -6.0012521177350633e-03 0.0000000000000000e+00  -5.7921973630690243e-03 -6.6982992532238434e-03 0.0000000000000000e+00  -3.5561178489487452e-03 -7.1239300433443963e-03 0.0000000000000000e+00  -1.2917078141654048e-03 -6.4044599731418643e-03 0.0000000000000000e+00  0.0000000000000000e+00 0.0000000000000000e+00 0.0000000000000000e+00  0.0000000000000000e+00 0.0000000000000000e+00 0.0000000000000000e+00  -1.2259370152053254e-03 7.6444401253373730e-03 0.0000000000000000e+00  -3.3915101789043218e-03 8.5405707303059224e-03 0.0000000000000000e+00  -5.5599657739219890e-03 8.1662407394144827e-03 0.0000000000000000e+00  -7.5950663296450250e-03 7.5396352172271992e-03 0.0000000000000000e+00  -9.4439355412244998e-03 6.7259331468189814e-03 0.0000000000000000e+00  -1.1064408177280093e-02 5.7463651299958837e-03 0.0000000000000000e+00  -1.2419666597329706e-02 4.6207457344684235e-03 0.0000000000000000e+00  -1.3478036217529908e-02 3.3692156398828252e-03 0.0000000000000000e+00  -1.4211907904123959e-02 2.0123173229217952e-03 0.0000000000000000e+00  -1.4596954931887377e-02 5.7178819700102643e-04 0.0000000000000000e+00  -1.4611787036180404e-02 -9.2786264813062480e-04 0.0000000000000000e+00  -1.4238513980903382e-02 -2.4572204914670814e-03 0.0000000000000000e+00  -1.3464541733364570e-02 -3.9797148999841814e-03 0.0000000000000000e+00  -1.2285876184808168e-02 -5.4499579024182470e-03 0.0000000000000000e+00  -1.0711286772780347e-02 -6.8135569978659653e-03 0.0000000000000000e+00  -8.7680655244384616e-03 -8.0089916128122107e-03 0.0000000000000000e+00  -6.5037673046233167e-03 -8.9679957117322177e-03 0.0000000000000000e+00  -3.9997647474109216e-03 -9.5609263621012856e-03 0.0000000000000000e+00  -1.4534115862728223e-03 -8.6143920422592467e-03 0.0000000000000000e+00  0.0000000000000000e+00 0.0000000000000000e+00 0.0000000000000000e+00  0.0000000000000000e+00 0.0000000000000000e+00 0.0000000000000000e+00  -1.3598670003208417e-03 9.7372246321364639e-03 0.0000000000000000e+00  -3.7614883128468174e-03 1.0865505391158027e-02 0.0000000000000000e+00  -6.1638713076631688e-03 1.0387270022405392e-02 0.0000000000000000e+00  -8.4162417495428857e-03 9.5894487457999257e-03 0.0000000000000000e+00  -1.0461849079350733e-02 8.5572148279123295e-03 0.0000000000000000e+00  -1.2256735680823886e-02 7.3191275947294661e-03 0.0000000000000000e+00  -1.3763808797175908e-02 5.9009094889137153e-03 0.0000000000000000e+00  -1.4951718361704747e-02 4.3273185616689407e-03 0.0000000000000000e+00  -1.5792780919747583e-02 2.6220912147943663e-03 0.0000000000000000e+00  -1.6261127182635941e-02 8.0903182912557276e-04 0.0000000000000000e+00  -1.6331409068186510e-02 -1.0856078757723912e-03 0.0000000000000000e+00  -1.5978757272209571e-02 -3.0296623149635789e-03 0.0000000000000000e+00  -1.5180629347704817e-02 -4.9810239897591724e-03 0.0000000000000000e+00  -1.3921228419072906e-02 -6.8840566653536129e-03 0.0000000000000000e+00  -1.2197951715512108e-02 -8.6679117182911526e-03 0.0000000000000000e+00  -1.0030925734172039e-02 -1.0248133448821237e-02 0.0000000000000000e+00  -7.4680064107498353e-03 -1.1527709685283279e-02 0.0000000000000000e+00  -4.6038289106244187e-03 -1.2329392628259998e-02 0.0000000000000000e+00  -1.6744560580964254e-03 -1.1131640234115539e-02 0.0000000000000000e+00  0.0000000000000000e+00 0.0000000000000000e+00 0.0000000000000000e+00  0.0000000000000000e+00 0.0000000000000000e+00 0.0000000000000000e+00  -1.5296151230372642e-03 1.2076278642400459e-02 0.0000000000000000e+00  -4.2291137382023964e-03 1.3460146407991360e-02 0.0000000000000000e+00  -6.9241160786648838e-03 1.2862126139821517e-02 0.0000000000000000e+00  -9.4454720547689618e-03 1.1870436435493409e-02 0.0000000000000000e+00  -1.1731747528918524e-02 1.0594280507844275e-02 0.0000000000000000e+00  -1.3737785255336369e-02 9.0718712880927324e-03 0.0000000000000000e+00  -1.5427712345108226e-02 7.3362556429393423e-03 0.0000000000000000e+00  -1.6772506469716907e-02 5.4170490376416304e-03 0.0000000000000000e+00  -1.7746393747293230e-02 3.3400944542303322e-03 0.0000000000000000e+00  -1.8323353846729101e-02 1.1288493852947316e-03 0.0000000000000000e+00  -1.8474226070185604e-02 -1.1922253321253668e-03 0.0000000000000000e+00  -1.8165393682289421e-02 -3.5923735481082409e-03 0.0000000000000000e+00  -1.7360100061587131e-02 -6.0278169760819159e-03 0.0000000000000000e+00  -1.6023827460475319e-02 -8.4347041071031227e-03 0.0000000000000000e+00  -1.4133819774164374e-02 -1.0723956348451476e-02 0.0000000000000000e+00  -1.1694828673425004e-02 -1.2781113250812826e-02 0.0000000000000000e+00  -8.7505368531064324e-03 -1.4468040453191252e-02 0.0000000000000000e+00  -5.4121196546518466e-03 -1.5541587978969077e-02 0.0000000000000000e+00  -1.9712145112052585e-03 -1.4063717770524869e-02 0.0000000000000000e+00  0.0000000000000000e+00 0.0000000000000000e+00 0.0000000000000000e+00  0.0000000000000000e+00 0.0000000000000000e+00 0.0000000000000000e+00  -1.7416975169953963e-03 1.4724403286597295e-02 0.0000000000000000e+00  -4.8111618901261893e-03 1.6390274075581933e-02 0.0000000000000000e+00  -7.8652667846351981e-03 1.5649201596830632e-02 0.0000000000000000e+00  -1.0711653205542645e-02 1.4431796113221033e-02 0.0000000000000000e+00  -1.3283567729846013e-02 1.2877284445790588e-02 0.0000000000000000e+00  -1.5536057673589364e-02 1.1037308069703189e-02 0.0000000000000000e+00  -1.7437281908307272e-02 8.9545790096604468e-03 0.0000000000000000e+00  -1.8964118929479429e-02 6.6641364508172075e-03 0.0000000000000000e+00  -2.0096351719816750e-02 4.1925509093599144e-03 0.0000000000000000e+00  -2.0810791224360383e-02 1.5595733482407065e-03 0.0000000000000000e+00  -2.1075974572846670e-02 -1.2174335925399765e-03 0.0000000000000000e+00  -2.0848536711236106e-02 -4.1161492290825892e-03 0.0000000000000000e+00  -2.0072403582022315e-02 -7.0987235466748065e-03 0.0000000000000000e+00  -1.8684107674349196e-02 -1.0098534259276225e-02 0.0000000000000000e+00  -1.6625975027293776e-02 -1.3008115694326500e-02 0.0000000000000000e+00  -1.3871801545549713e-02 -1.5674222389223853e-02 0.0000000000000000e+00  -1.0450410263579787e-02 -1.7898777339739564e-02 0.0000000000000000e+00  -6.4918065584366955e-03 -1.9342469786575903e-02 0.0000000000000000e+00  -2.3688321870016680e-03 -1.7551596497944411e-02 0.0000000000000000e+00  0.0000000000000000e+00 0.0000000000000000e+00 0.0000000000000000e+00  0.0000000000000000e+00 0.0000000000000000e+00 0.0000000000000000e+00  -2.0060658347138293e-03 1.7757045602394991e-02 0.0000000000000000e+00  -5.5325072321408854e-03 1.9732830023919769e-02 0.0000000000000000e+00  -9.0227612964743961e-03 1.8813828222364513e-02 0.0000000000000000e+00  -1.2255102119365412e-02 1.7325057418580404e-02 0.0000000000000000e+00  -1.5157170373519229e-02 1.5444866221419527e-02 0.0000000000000000e+00  -1.7687036445556813e-02 1.3244236911972702e-02 0.0000000000000000e+00  -1.9821719577397715e-02 1.0779166852240037e-02 0.0000000000000000e+00  -2.1549821930538188e-02 8.0911646162888564e-03 0.0000000000000000e+00  -2.2862626631081896e-02 5.2059639287766303e-03 0.0000000000000000e+00  -2.3745196876693440e-02 2.1352807840602189e-03 0.0000000000000000e+00  -2.4168067413309170e-02 -1.1183113807436780e-03 0.0000000000000000e+00  -2.4079047571275120e-02 -4.5518990012490849e-03 0.0000000000000000e+00  -2.3397360933966292e-02 -8.1460031215781440e-03 0.0000000000000000e+00  -2.2017437715743129e-02 -1.1843017317618738e-02 0.0000000000000000e+00  -1.9823696545998491e-02 -1.5524839290639733e-02 0.0000000000000000e+00  -1.6729106573301906e-02 -1.8992956262838822e-02 0.0000000000000000e+00  -1.2721476106143733e-02 -2.1958408932156732e-02 0.0000000000000000e+00  -7.9479233813434177e-03 -2.3929044059878127e-02 0.0000000000000000e+00  -2.9056628359831623e-03 -2.1787274286444530e-02 0.0000000000000000e+00  0.0000000000000000e+00 0.0000000000000000e+00 0.0000000000000000e+00  0.0000000000000000e+00 0.0000000000000000e+00 0.0000000000000000e+00  -2.3382899976666077e-03 2.1268793130407918e-02 0.0000000000000000e+00  -6.4309362521342891e-03 2.3580585602630308e-02 0.0000000000000000e+00  -1.0448870010313123e-02 2.2430067649827565e-02 0.0000000000000000e+00  -1.4133088680641139e-02 2.0603103636506692e-02 0.0000000000000000e+00  -1.7406358779020168e-02 1.8331027815989644e-02 0.0000000000000000e+00  -2.0235132406415737e-02 1.5713140051774634e-02 0.0000000000000000e+00  -2.2613210599145346e-02 1.2823928629837729e-02 0.0000000000000000e+00  -2.4549751281664655e-02 9.7129535327234381e-03 0.0000000000000000e+00  -2.6056382688536158e-02 6.4034155240977747e-03 0.0000000000000000e+00  -2.7135574068029179e-02 2.8936036779942816e-03 0.0000000000000000e+00  -2.7767957658810172e-02 -8.3795879075008594e-04 0.0000000000000000e+00  -2.7895867561720449e-02 -4.8199634817489888e-03 0.0000000000000000e+00  -2.7415191853119903e-02 -9.0716772219945809e-03 0.0000000000000000e+00  -2.6167186415516745e-02 -1.3579521194796275e-02 0.0000000000000000e+00  -2.3939392853347969e-02 -1.8243258436139109e-02 0.0000000000000000e+00  -2.0522688631293182e-02 -2.2806496433324611e-02 0.0000000000000000e+00  -1.5806369547511651e-02 -2.6828134300700263e-02 0.0000000000000000e+00  -9.9481825856928118e-03 -2.9569834286610180e-02 0.0000000000000000e+00  -3.6442364453381495e-03 -2.7037779338978829e-02 0.0000000000000000e+00  0.0000000000000000e+00 0.0000000000000000e+00 0.0000000000000000e+00  0.0000000000000000e+00 0.0000000000000000e+00 0.0000000000000000e+00  -2.7635965618275724e-03 2.5384024392597942e-02 0.0000000000000000e+00  -7.5655873097264263e-03 2.8049301910090575e-02 0.0000000000000000e+00  -1.2222605135013383e-02 2.6582749172629951e-02 0.0000000000000000e+00  -1.6428583543559281e-02 2.4317594003278174e-02 0.0000000000000000e+00  -2.0104901166414321e-02 2.1559458073265234e-02 0.0000000000000000e+00  -2.3236514440438547e-02 1.8449004673617198e-02 0.0000000000000000e+00  -2.5846689134467190e-02 1.5085825423081541e-02 0.0000000000000000e+00  -2.7977723195004734e-02 1.1529108900097668e-02 0.0000000000000000e+00  -2.9673982177803107e-02 7.7973732985726100e-03 0.0000000000000000e+00  -3.0968310843794516e-02 3.8707098355501191e-03 0.0000000000000000e+00  -3.1860831643766033e-02 -3.0231459057468440e-04 0.0000000000000000e+00  -3.2305821919763965e-02 -4.8031042833542410e-03 0.0000000000000000e+00  -3.2201906896430883e-02 -9.7440314832921582e-03 0.0000000000000000e+00  -3.1305525249984111e-02 -1.5203436759526309e-02 0.0000000000000000e+00  -2.9254680346892183e-02 -2.1088372803761884e-02 0.0000000000000000e+00  -2.5630899700267811e-02 -2.7099892709221151e-02 0.0000000000000000e+00  -2.0107603099550043e-02 -3.2654028927397265e-02 0.0000000000000000e+00  -1.2791424334572317e-02 -3.6634875442963677e-02 0.0000000000000000e+00  -4.7014533752488038e-03 -3.3739009729089463e-02 0.0000000000000000e+00  0.0000000000000000e+00 0.0000000000000000e+00 0.0000000000000000e+00  0.0000000000000000e+00 0.0000000000000000e+00 0.0000000000000000e+00  -3.3245632271557239e-03 3.0274967956496420e-02 0.0000000000000000e+00  -9.0320906991498816e-03 3.3288507615397672e-02 0.0000000000000000e+00  -1.4466381634279865e-02 3.1369031325262003e-02 0.0000000000000000e+00  -1.9263807163320722e-02 2.8513146904974210e-02 0.0000000000000000e+00  -2.3354917027108707e-02 2.5133744399542680e-02 0.0000000000000000e+00  -2.6762542855460425e-02 2.1430408258147588e-02 0.0000000000000000e+00  -2.9559453734392931e-02 1.7534173284449943e-02 0.0000000000000000e+00  -3.1838113902834177e-02 1.3513485919650663e-02 0.0000000000000000e+00  -3.3690847295367740e-02 9.3794116303982274e-03 0.0000000000000000e+00  -3.5192004498819221e-02 5.0923486361422552e-03 0.0000000000000000e+00  -3.6378278988900205e-02 5.6271543689202503e-04 0.0000000000000000e+00  -3.7276256161833263e-02 -4.3777055154197728e-03 0.0000000000000000e+00  -3.7769613861613448e-02 -9.9086548836635462e-03 0.0000000000000000e+00  -3.7501635248310128e-02 -1.6150747377972324e-02 0.0000000000000000e+00  -3.6113298095568527e-02 -2.3301158302534219e-02 0.0000000000000000e+00  -3.2732979129503285e-02 -3.1509434376430091e-02 0.0000000000000000e+00  -2.6422188339630819e-02 -3.9800022144885101e-02 0.0000000000000000e+00  -1.6994851402450627e-02 -4.5989975021086156e-02 0.0000000000000000e+00  -6.2196171038154842e-03 -4.2625405414725467e-02 0.0000000000000000e+00  0.0000000000000000e+00 0.0000000000000000e+00 0.0000000000000000e+00  0.0000000000000000e+00 0.0000000000000000e+00 0.0000000000000000e+00  -4.0965928679378184e-03 3.6193153836066978e-02 0.0000000000000000e+00  -1.0990500012462144e-02 3.9497787036648205e-02 0.0000000000000000e+00  -1.7374378057309188e-02 3.6897139393654417e-02 0.0000000000000000e+00  -2.2820502880567139e-02 3.3214491021753237e-02 0.0000000000000000e+00  -2.7297095845971429e-02 2.9020441820674467e-02 0.0000000000000000e+00  -3.0902372908557890e