<?xml version="1.0"?>
<VTKFile type="UnstructuredGrid"  version="0.1"  >
<UnstructuredGrid>
<Piece  NumberOfPoints="441" NumberOfCells="800">
<Points>
<DataArray  type="Float64"  NumberOfComponents="3"  format="ascii">0 0 0  0.05 0 0  0.1 0 0  0.15 0 0  0.2 0 0  0.25 0 0  0.3 0 0  0.35 0 0  0.4 0 0  0.45 0 0  0.5 0 0  0.55 0 0  0.6 0 0  0.65 0 0  0.7 0 0  0.75 0 0  0.8 0 0  0.85 0 0  0.9 0 0  0.95 0 0  1 0 0  0 0.05 0  0.05 0.05 0  0.1 0.05 0  0.15 0.05 0  0.2 0.05 0  0.25 0.05 0  0.3 0.05 0  0.35 0.05 0  0.4 0.05 0  0.45 0.05 0  0.5 0.05 0  0.55 0.05 0  0.6 0.05 0  0.65 0.05 0  0.7 0.05 0  0.75 0.05 0  0.8 0.05 0  0.85 0.05 0  0.9 0.05 0  0.95 0.05 0  1 0.05 0  0 0.1 0  0.05 0.1 0  0.1 0.1 0  0.15 0.1 0  0.2 0.1 0  0.25 0.1 0  0.3 0.1 0  0.35 0.1 0  0.4 0.1 0  0.45 0.1 0  0.5 0.1 0  0.55 0.1 0  0.6 0.1 0  0.65 0.1 0  0.7 0.1 0  0.75 0.1 0  0.8 0.1 0  0.85 0.1 0  0.9 0.1 0  0.95 0.1 0  1 0.1 0  0 0.15 0  0.05 0.15 0  0.1 0.15 0  0.15 0.15 0  0.2 0.15 0  0.25 0.15 0  0.3 0.15 0  0.35 0.15 0  0.4 0.15 0  0.45 0.15 0  0.5 0.15 0  0.55 0.15 0  0.6 0.15 0  0.65 0.15 0  0.7 0.15 0  0.75 0.15 0  0.8 0.15 0  0.85 0.15 0  0.9 0.15 0  0.95 0.15 0  1 0.15 0  0 0.2 0  0.05 0.2 0  0.1 0.2 0  0.15 0.2 0  0.2 0.2 0  0.25 0.2 0  0.3 0.2 0  0.35 0.2 0  0.4 0.2 0  0.45 0.2 0  0.5 0.2 0  0.55 0.2 0  0.6 0.2 0  0.65 0.2 0  0.7 0.2 0  0.75 0.2 0  0.8 0.2 0  0.85 0.2 0  0.9 0.2 0  0.95 0.2 0  1 0.2 0  0 0.25 0  0.05 0.25 0  0.1 0.25 0  0.15 0.25 0  0.2 0.25 0  0.25 0.25 0  0.3 0.25 0  0.35 0.25 0  0.4 0.25 0  0.45 0.25 0  0.5 0.25 0  0.55 0.25 0  0.6 0.25 0  0.65 0.25 0  0.7 0.25 0  0.75 0.25 0  0.8 0.25 0  0.85 0.25 0  0.9 0.25 0  0.95 0.25 0  1 0.25 0  0 0.3 0  0.05 0.3 0  0.1 0.3 0  0.15 0.3 0  0.2 0.3 0  0.25 0.3 0  0.3 0.3 0  0.35 0.3 0  0.4 0.3 0  0.45 0.3 0  0.5 0.3 0  0.55 0.3 0  0.6 0.3 0  0.65 0.3 0  0.7 0.3 0  0.75 0.3 0  0.8 0.3 0  0.85 0.3 0  0.9 0.3 0  0.95 0.3 0  1 0.3 0  0 0.35 0  0.05 0.35 0  0.1 0.35 0  0.15 0.35 0  0.2 0.35 0  0.25 0.35 0  0.3 0.35 0  0.35 0.35 0  0.4 0.35 0  0.45 0.35 0  0.5 0.35 0  0.55 0.35 0  0.6 0.35 0  0.65 0.35 0  0.7 0.35 0  0.75 0.35 0  0.8 0.35 0  0.85 0.35 0  0.9 0.35 0  0.95 0.35 0  1 0.35 0  0 0.4 0  0.05 0.4 0  0.1 0.4 0  0.15 0.4 0  0.2 0.4 0  0.25 0.4 0  0.3 0.4 0  0.35 0.4 0  0.4 0.4 0  0.45 0.4 0  0.5 0.4 0  0.55 0.4 0  0.6 0.4 0  0.65 0.4 0  0.7 0.4 0  0.75 0.4 0  0.8 0.4 0  0.85 0.4 0  0.9 0.4 0  0.95 0.4 0  1 0.4 0  0 0.45 0  0.05 0.45 0  0.1 0.45 0  0.15 0.45 0  0.2 0.45 0  0.25 0.45 0  0.3 0.45 0  0.35 0.45 0  0.4 0.45 0  0.45 0.45 0  0.5 0.45 0  0.55 0.45 0  0.6 0.45 0  0.65 0.45 0  0.7 0.45 0  0.75 0.45 0  0.8 0.45 0  0.85 0.45 0  0.9 0.45 0  0.95 0.45 0  1 0.45 0  0 0.5 0  0.05 0.5 0  0.1 0.5 0  0.15 0.5 0  0.2 0.5 0  0.25 0.5 0  0.3 0.5 0  0.35 0.5 0  0.4 0.5 0  0.45 0.5 0  0.5 0.5 0  0.55 0.5 0  0.6 0.5 0  0.65 0.5 0  0.7 0.5 0  0.75 0.5 0  0.8 0.5 0  0.85 0.5 0  0.9 0.5 0  0.95 0.5 0  1 0.5 0  0 0.55 0  0.05 0.55 0  0.1 0.55 0  0.15 0.55 0  0.2 0.55 0  0.25 0.55 0  0.3 0.55 0  0.35 0.55 0  0.4 0.55 0  0.45 0.55 0  0.5 0.55 0  0.55 0.55 0  0.6 0.55 0  0.65 0.55 0  0.7 0.55 0  0.75 0.55 0  0.8 0.55 0  0.85 0.55 0  0.9 0.55 0  0.95 0.55 0  1 0.55 0  0 0.6 0  0.05 0.6 0  0.1 0.6 0  0.15 0.6 0  0.2 0.6 0  0.25 0.6 0  0.3 0.6 0  0.35 0.6 0  0.4 0.6 0  0.45 0.6 0  0.5 0.6 0  0.55 0.6 0  0.6 0.6 0  0.65 0.6 0  0.7 0.6 0  0.75 0.6 0  0.8 0.6 0  0.85 0.6 0  0.9 0.6 0  0.95 0.6 0  1 0.6 0  0 0.65 0  0.05 0.65 0  0.1 0.65 0  0.15 0.65 0  0.2 0.65 0  0.25 0.65 0  0.3 0.65 0  0.35 0.65 0  0.4 0.65 0  0.45 0.65 0  0.5 0.65 0  0.55 0.65 0  0.6 0.65 0  0.65 0.65 0  0.7 0.65 0  0.75 0.65 0  0.8 0.65 0  0.85 0.65 0  0.9 0.65 0  0.95 0.65 0  1 0.65 0  0 0.7 0  0.05 0.7 0  0.1 0.7 0  0.15 0.7 0  0.2 0.7 0  0.25 0.7 0  0.3 0.7 0  0.35 0.7 0  0.4 0.7 0  0.45 0.7 0  0.5 0.7 0  0.55 0.7 0  0.6 0.7 0  0.65 0.7 0  0.7 0.7 0  0.75 0.7 0  0.8 0.7 0  0.85 0.7 0  0.9 0.7 0  0.95 0.7 0  1 0.7 0  0 0.75 0  0.05 0.75 0  0.1 0.75 0  0.15 0.75 0  0.2 0.75 0  0.25 0.75 0  0.3 0.75 0  0.35 0.75 0  0.4 0.75 0  0.45 0.75 0  0.5 0.75 0  0.55 0.75 0  0.6 0.75 0  0.65 0.75 0  0.7 0.75 0  0.75 0.75 0  0.8 0.75 0  0.85 0.75 0  0.9 0.75 0  0.95 0.75 0  1 0.75 0  0 0.8 0  0.05 0.8 0  0.1 0.8 0  0.15 0.8 0  0.2 0.8 0  0.25 0.8 0  0.3 0.8 0  0.35 0.8 0  0.4 0.8 0  0.45 0.8 0  0.5 0.8 0  0.55 0.8 0  0.6 0.8 0  0.65 0.8 0  0.7 0.8 0  0.75 0.8 0  0.8 0.8 0  0.85 0.8 0  0.9 0.8 0  0.95 0.8 0  1 0.8 0  0 0.85 0  0.05 0.85 0  0.1 0.85 0  0.15 0.85 0  0.2 0.85 0  0.25 0.85 0  0.3 0.85 0  0.35 0.85 0  0.4 0.85 0  0.45 0.85 0  0.5 0.85 0  0.55 0.85 0  0.6 0.85 0  0.65 0.85 0  0.7 0.85 0  0.75 0.85 0  0.8 0.85 0  0.85 0.85 0  0.9 0.85 0  0.95 0.85 0  1 0.85 0  0 0.9 0  0.05 0.9 0  0.1 0.9 0  0.15 0.9 0  0.2 0.9 0  0.25 0.9 0  0.3 0.9 0  0.35 0.9 0  0.4 0.9 0  0.45 0.9 0  0.5 0.9 0  0.55 0.9 0  0.6 0.9 0  0.65 0.9 0  0.7 0.9 0  0.75 0.9 0  0.8 0.9 0  0.85 0.9 0  0.9 0.9 0  0.95 0.9 0  1 0.9 0  0 0.95 0  0.05 0.95 0  0.1 0.95 0  0.15 0.95 0  0.2 0.95 0  0.25 0.95 0  0.3 0.95 0  0.35 0.95 0  0.4 0.95 0  0.45 0.95 0  0.5 0.95 0  0.55 0.95 0  0.6 0.95 0  0.65 0.95 0  0.7 0.95 0  0.75 0.95 0  0.8 0.95 0  0.85 0.95 0  0.9 0.95 0  0.95 0.95 0  1 0.95 0  0 1 0  0.05 1 0  0.1 1 0  0.15 1 0  0.2 1 0  0.25 1 0  0.3 1 0  0.35 1 0  0.4 1 0  0.45 1 0  0.5 1 0  0.55 1 0  0.6 1 0  0.65 1 0  0.7 1 0  0.75 1 0  0.8 1 0  0.85 1 0  0.9 1 0  0.95 1 0  1 1 0  </DataArray>
</Points>
<Cells>
[...]
<PointData  Vectors="f_137"> 
<DataArray  type="Float64"  Name="f_137"  NumberOfComponents="3" format="ascii">0.0000000000000000e+00 0.0000000000000000e+00 0.0000000000000000e+00  0.0000000000000000e+00 0.0000000000000000e+00 0.0000000000000000e+00  0.0000000000000000e+00 0.0000000000000000e+00 0.0000000000000000e+00  0.0000000000000000e+00 0.0000000000000000e+00 0.0000000000000000e+00  0.0000000000000000e+00 0.0000000000000000e+00 0.0000000000000000e+00  0.0000000000000000e+00 0.0000000000000000e+00 0.0000000000000000e+00  0.0000000000000000e+00 0.0000000000000000e+00 0.0000000000000000e+00  0.0000000000000000e+00 0.0000000000000000e+00 0.0000000000000000e+00  0.0000000000000000e+00 0.0000000000000000e+00 0.0000000000000000e+00  0.0000000000000000e+00 0.0000000000000000e+00 0.0000000000000000e+00  0.0000000000000000e+00 0.0000000000000000e+00 0.0000000000000000e+00  0.0000000000000000e+00 0.0000000000000000e+00 0.0000000000000000e+00  0.0000000000000000e+00 0.0000000000000000e+00 0.0000000000000000e+00  0.0000000000000000e+00 0.0000000000000000e+00 0.0000000000000000e+00  0.0000000000000000e+00 0.0000000000000000e+00 0.0000000000000000e+00  0.0000000000000000e+00 0.0000000000000000e+00 0.0000000000000000e+00  0.0000000000000000e+00 0.0000000000000000e+00 0.0000000000000000e+00  0.0000000000000000e+00 0.0000000000000000e+00 0.0000000000000000e+00  0.0000000000000000e+00 0.0000000000000000e+00 0.0000000000000000e+00  0.0000000000000000e+00 0.0000000000000000e+00 0.0000000000000000e+00  0.0000000000000000e+00 0.0000000000000000e+00 0.0000000000000000e+00  0.0000000000000000e+00 0.0000000000000000e+00 0.0000000000000000e+00  -5.7154899698155705e-04 5.6264566826458556e-04 0.0000000000000000e+00  -1.2206897054064230e-03 5.3780177789082421e-04 0.0000000000000000e+00  -1.8400021725477774e-03 5.0082274634188364e-04 0.0000000000000000e+00  -2.4107673141060327e-03 4.5238812210068624e-04 0.0000000000000000e+00  -2.9186173942856875e-03 3.9262006230391311e-04 0.0000000000000000e+00  -3.3509757269699334e-03 3.2324301907933883e-04 0.0000000000000000e+00  -3.6973954019132627e-03 2.4614818045070089e-04 0.0000000000000000e+00  -3.9497172805865221e-03 1.6328116531684537e-04 0.0000000000000000e+00  -4.1020977053861226e-03 7.6603251722852535e-05 0.0000000000000000e+00  -4.1510055787672175e-03 -1.1926368511039015e-05 0.0000000000000000e+00  -4.0952142201269573e-03 -1.0034546554075121e-04 0.0000000000000000e+00  -3.9358083219806260e-03 -1.8667172306597850e-04 0.0000000000000000e+00  -3.6762133623243131e-03 -2.6888835555019644e-04 0.0000000000000000e+00  -3.3222369187877339e-03 -3.4494893967213901e-04 0.0000000000000000e+00  -2.8820951394972110e-03 -4.1284119630557184e-04 0.0000000000000000e+00  -2.3663905054467746e-03 -4.7085719975683464e-04 0.0000000000000000e+00  -1.7880752251078263e-03 -5.1820567269110984e-04 0.0000000000000000e+00  -1.1626268071825137e-03 -5.5121820285553100e-04 0.0000000000000000e+00  -5.0702109766976569e-04 -5.0521194967094332e-04 0.0000000000000000e+00  0.0000000000000000e+00 0.0000000000000000e+00 0.0000000000000000e+00  0.0000000000000000e+00 0.0000000000000000e+00 0.0000000000000000e+00  -5.9001861356132120e-04 1.2340323362890514e-03 0.0000000000000000e+00  -1.2961394660857505e-03 1.2196021862463323e-03 0.0000000000000000e+00  -1.9722599378904932e-03 1.1377251431161830e-03 0.0000000000000000e+00  -2.5966418969057253e-03 1.0306767751824158e-03 0.0000000000000000e+00  -3.1528458884285170e-03 8.9807296185879376e-04 0.0000000000000000e+00  -3.6272105716890221e-03 7.4355581945995889e-04 0.0000000000000000e+00  -4.0084511313676968e-03 5.7137231249986974e-04 0.0000000000000000e+00  -4.2877655298775106e-03 3.8589817160340610e-04 0.0000000000000000e+00  -4.4588399169637194e-03 1.9152154796846964e-04 0.0000000000000000e+00  -4.5178050973316815e-03 -7.3967374937668962e-06 0.0000000000000000e+00  -4.4631987396600830e-03 -2.0650401823736264e-04 0.0000000000000000e+00  -4.2959654017725082e-03 -4.0140509863255218e-04 0.0000000000000000e+00  -4.0195051368697001e-03 -5.8761457314522299e-04 0.0000000000000000e+00  -3.6397582732002726e-03 -7.6054925417851050e-04 0.0000000000000000e+00  -3.1652910643996525e-03 -9.1562562941652486e-04 0.0000000000000000e+00  -2.6073278477524559e-03 -1.0486709988334121e-03 0.0000000000000000e+00  -1.9797067633469194e-03 -1.1570271998468085e-03 0.0000000000000000e+00  -1.2991094589013023e-03 -1.2357879940515159e-03 0.0000000000000000e+00  -5.8683788121900780e-04 -1.1788412421448724e-03 0.0000000000000000e+00  0.0000000000000000e+00 0.0000000000000000e+00 0.0000000000000000e+00  0.0000000000000000e+00 0.0000000000000000e+00 0.0000000000000000e+00  -6.2639715800981021e-04 1.9403497160555509e-03 0.0000000000000000e+00  -1.3711956832537728e-03 1.9365512876135804e-03 0.0000000000000000e+00  -2.0851877362463556e-03 1.8075653166448025e-03 0.0000000000000000e+00  -2.7437046607383516e-03 1.6373000111612487e-03 0.0000000000000000e+00  -3.3294664595254517e-03 1.4271146526252593e-03 0.0000000000000000e+00  -3.8282624675350548e-03 1.1824055992426127e-03 0.0000000000000000e+00  -4.2286009310161920e-03 9.0994734181207423e-04 0.0000000000000000e+00  -4.5216527901946885e-03 6.1668075151132971e-04 0.0000000000000000e+00  -4.7011605194239884e-03 3.0947412777188326e-04 0.0000000000000000e+00  -4.7633037275760228e-03 -4.9190516477788642e-06 0.0000000000000000e+00  -4.7065979508222541e-03 -3.1979718354787690e-04 0.0000000000000000e+00  -4.5318745942738671e-03 -6.2838987048706712e-04 0.0000000000000000e+00  -4.2423586257198933e-03 -9.2374015918673404e-04 0.0000000000000000e+00  -3.8438280010407015e-03 -1.1986547815607139e-03 0.0000000000000000e+00  -3.3448055312785044e-03 -1.4458202399569571e-03 0.0000000000000000e+00  -2.7567048347335414e-03 -1.6583776769945023e-03 0.0000000000000000e+00  -2.0938958140619890e-03 -1.8316017856255544e-03 0.0000000000000000e+00  -1.3740757505346292e-03 -1.9586750806874090e-03 0.0000000000000000e+00  -6.1982052739196862e-04 -1.8864099453213008e-03 0.0000000000000000e+00  0.0000000000000000e+00 0.0000000000000000e+00 0.0000000000000000e+00  0.0000000000000000e+00 0.0000000000000000e+00 0.0000000000000000e+00  -6.8153535596899900e-04 2.6985295040186496e-03 0.0000000000000000e+00  -1.4879188910357376e-03 2.7052719197466664e-03 0.0000000000000000e+00  -2.2596216879562153e-03 2.5246213559755345e-03 0.0000000000000000e+00  -2.9699054904588039e-03 2.2855090759583575e-03 0.0000000000000000e+00  -3.6000840339955212e-03 1.9911437481646534e-03 0.0000000000000000e+00  -4.1353018010725660e-03 1.6492888686032024e-03 0.0000000000000000e+00  -4.5638431612078211e-03 1.2695139807347520e-03 0.0000000000000000e+00  -4.8769668063820427e-03 8.6149941055867815e-04 0.0000000000000000e+00  -5.0686237562415836e-03 4.3463734901462588e-04 0.0000000000000000e+00  -5.1351597542624253e-03 -1.9943996475585437e-06 0.0000000000000000e+00  -5.0751032221209346e-03 -4.3947443951401321e-04 0.0000000000000000e+00  -4.8891073748983504e-03 -8.6878337390083047e-04 0.0000000000000000e+00  -4.5800725180300391e-03 -1.2805505115442469e-03 0.0000000000000000e+00  -4.1534282881574543e-03 -1.6649065656814024e-03 0.0000000000000000e+00  -3.6175071229078738e-03 -2.0115881645450572e-03 0.0000000000000000e+00  -2.9838960216571979e-03 -2.3106905419453048e-03 0.0000000000000000e+00  -2.2676924345623882e-03 -2.5549828709494722e-03 0.0000000000000000e+00  -1.4879991809156623e-03 -2.7351139857950727e-03 0.0000000000000000e+00  -6.6925439041904257e-04 -2.6464691455113489e-03 0.0000000000000000e+00  0.0000000000000000e+00 0.0000000000000000e+00 0.0000000000000000e+00  0.0000000000000000e+00 0.0000000000000000e+00 0.0000000000000000e+00  -7.5616390037135345e-04 3.5298668518695688e-03 0.0000000000000000e+00  -1.6468793876973779e-03 3.5461312454973305e-03 0.0000000000000000e+00  -2.4977016169288498e-03 3.3071657884534787e-03 0.0000000000000000e+00  -3.2782838272619979e-03 2.9908279701032344e-03 0.0000000000000000e+00  -3.9682864104123141e-03 2.6028982528947019e-03 0.0000000000000000e+00  -4.5520830928640317e-03 2.1540921823581432e-03 0.0000000000000000e+00  -5.0179144809587321e-03 1.6572789974739169e-03 0.0000000000000000e+00  -5.3574235992620428e-03 1.1251243501484128e-03 0.0000000000000000e+00  -5.5650791507773382e-03 5.6955818314157890e-04 0.0000000000000000e+00  -5.6376122695752495e-03 1.8129291346858185e-06 0.0000000000000000e+00  -5.5736242198969133e-03 -5.6724120107841955e-04 0.0000000000000000e+00  -5.3734640280997887e-03 -1.1266060156837215e-03 0.0000000000000000e+00  -5.0394154029910591e-03 -1.6646606455925990e-03 0.0000000000000000e+00  -4.5761695660210744e-03 -2.1688231803216316e-03 0.0000000000000000e+00  -3.9914914107653287e-03 -2.6255831669126312e-03 0.0000000000000000e+00  -3.2969161112217588e-03 -3.0214346606658388e-03 0.0000000000000000e+00  -2.5083331709682740e-03 -3.3459366111554612e-03 0.0000000000000000e+00  -1.6467293305601092e-03 -3.5863393034948226e-03 0.0000000000000000e+00  -7.3938847658597197e-04 -3.4801970084536067e-03 0.0000000000000000e+00  0.0000000000000000e+00 0.0000000000000000e+00 0.0000000000000000e+00  0.0000000000000000e+00 0.0000000000000000e+00 0.0000000000000000e+00  -8.5341883432005184e-04 4.4583605927777971e-03 0.0000000000000000e+00  -1.8541970186661558e-03 4.4825704209706992e-03 0.0000000000000000e+00  -2.8074288548816969e-03 4.1756870262830903e-03 0.0000000000000000e+00  -3.6780366498759039e-03 3.7703105903787028e-03 0.0000000000000000e+00  -4.4435479397995576e-03 3.2758012027142920e-03 0.0000000000000000e+00  -5.0877002462911399e-03 2.7068235551467581e-03 0.0000000000000000e+00  -5.5991453034289866e-03 2.0802447334071729e-03 0.0000000000000000e+00  -5.9705305533237028e-03 1.4120322587265809e-03 0.0000000000000000e+00  -6.1974314525509062e-03 7.1658989168148354e-04 0.0000000000000000e+00  -6.2773724873112823e-03 6.9491340963530011e-06 0.0000000000000000e+00  -6.2091562830703037e-03 -7.0458643559498976e-04 0.0000000000000000e+00  -5.9926366673905256e-03 -1.4055605601195665e-03 0.0000000000000000e+00  -5.6289928918066322e-03 -2.0824662201749519e-03 0.0000000000000000e+00  -5.1214835847588304e-03 -2.7200650979339390e-03 0.0000000000000000e+00  -4.4765658449737334e-03 -3.3012366382167645e-03 0.0000000000000000e+00  -3.7051542654888011e-03 -3.8080694724906372e-03 0.0000000000000000e+00  -2.8237727465258511e-03 -4.2258094239357134e-03 0.0000000000000000e+00  -1.8557579702252610e-03 -4.5369221252345368e-03 0.0000000000000000e+00  -8.3238548120397504e-04 -4.4124151360649165e-03 0.0000000000000000e+00  0.0000000000000000e+00 0.0000000000000000e+00 0.0000000000000000e+00  0.0000000000000000e+00 0.0000000000000000e+00 0.0000000000000000e+00  -9.7788944206993406e-04 5.5121821846038730e-03 0.0000000000000000e+00  -2.1190974621073601e-03 5.5416141213603821e-03 0.0000000000000000e+00  -3.2014892273369002e-03 5.1531818758319831e-03 0.0000000000000000e+00  -4.1837697328630050e-03 4.6422497532783219e-03 0.0000000000000000e+00  -5.0409954929268447e-03 4.0234688785890796e-03 0.0000000000000000e+00  -5.7567158393523731e-03 3.3169500982946957e-03 0.0000000000000000e+00  -6.3209460897708401e-03 2.5445598808764478e-03 0.0000000000000000e+00  -6.7284646637060901e-03 1.7259243250252480e-03 0.0000000000000000e+00  -6.9769713860866906e-03 8.7768628908338193e-04 0.0000000000000000e+00  -7.0654777892946380e-03 1.4000440870201638e-05 0.0000000000000000e+00  -6.9932243565909115e-03 -8.5231350791102015e-04 0.0000000000000000e+00  -6.7592922807842249e-03 -1.7082770623374492e-03 0.0000000000000000e+00  -6.3629844591984279e-03 -2.5392167174589212e-03 0.0000000000000000e+00  -5.8049700212669348e-03 -3.3275062207477357e-03 0.0000000000000000e+00  -5.0890758230976779e-03 -4.0520318699167560e-03 0.0000000000000000e+00  -4.2244417936520111e-03 -4.6893552674207029e-03 0.0000000000000000e+00  -3.2276487233014162e-03 -5.2187043230522831e-03 0.0000000000000000e+00  -2.1247675174279178e-03 -5.6155415252557806e-03 0.0000000000000000e+00  -9.5255004656510738e-04 -5.4726265100895162e-03 0.0000000000000000e+00  0.0000000000000000e+00 0.0000000000000000e+00 0.0000000000000000e+00  0.0000000000000000e+00 0.0000000000000000e+00 0.0000000000000000e+00  -1.1362682686898288e-03 6.7255805516248353e-03 0.0000000000000000e+00  -2.4548996778082964e-03 6.7553189968400148e-03 0.0000000000000000e+00  -3.6979151606771820e-03 6.2657968211374728e-03 0.0000000000000000e+00  -4.8158156031200793e-03 5.6261430445156005e-03 0.0000000000000000e+00  -5.7810431671459616e-03 4.8590964710886640e-03 0.0000000000000000e+00  -6.5780395140318847e-03 3.9924969316273203e-03 0.0000000000000000e+00  -7.1999530067106323e-03 3.0545847274008838e-03 0.0000000000000000e+00  -7.6456216865252360e-03 2.0689763398848752e-03 0.0000000000000000e+00  -7.9165304097870929e-03 1.0539879854006833e-03 0.0000000000000000e+00  -8.0142877479126677e-03 2.3696550115159346e-05 0.0000000000000000e+00  -7.9389721299350340e-03 -1.0101053281667163e-03 0.0000000000000000e+00  -7.6885102708164829e-03 -2.0355038663052703e-03 0.0000000000000000e+00  -7.2591671097309287e-03 -3.0379738488576732e-03 0.0000000000000000e+00  -6.6471848317432025e-03 -3.9981948993344403e-03 0.0000000000000000e+00  -5.8515158746401926e-03 -4.8907801140481268e-03 0.0000000000000000e+00  -4.8773638750896102e-03 -5.6852719567381301e-03 0.0000000000000000e+00  -3.7399813592120536e-03 -6.3522800671100901e-03 0.0000000000000000e+00  -2.4683052343100502e-03 -6.8566802304878211e-03 0.0000000000000000e+00  -1.1065514027980108e-03 -6.6970750972806326e-03 0.0000000000000000e+00  0.0000000000000000e+00 0.0000000000000000e+00 0.0000000000000000e+00  0.0000000000000000e+00 0.0000000000000000e+00 0.0000000000000000e+00  -1.3385303222318767e-03 8.1416684777965830e-03 0.0000000000000000e+00  -2.8811458851414735e-03 8.1628002533283596e-03 0.0000000000000000e+00  -4.3225493720686894e-03 7.5436277145635852e-03 0.0000000000000000e+00  -5.6023818548985678e-03 6.7423135132453956e-03 0.0000000000000000e+00  -6.6908169977937734e-03 5.7942587000841123e-03 0.0000000000000000e+00  -7.5754336627015155e-03 4.7384707020390422e-03 0.0000000000000000e+00  -8.2556566913700117e-03 3.6113583090544360e-03 0.0000000000000000e+00  -8.7375478477165081e-03 2.4406565923412709e-03 0.0000000000000000e+00  -9.0289588754792430e-03 1.2451807223460760e-03 0.0000000000000000e+00  -9.1357732129387255e-03 3.6906509110073782e-05 0.0000000000000000e+00  -9.0595392322515827e-03 -1.1758653129180952e-03 0.0000000000000000e+00  -8.7965448434900693e-03 -2.3848363324266600e-03 0.0000000000000000e+00  -8.3383718200214767e-03 -3.5778896623985704e-03 0.0000000000000000e+00  -7.6740599585113176e-03 -4.7355015392145762e-03 0.0000000000000000e+00  -6.7940303087791077e-03 -5.8281298752522496e-03 0.0000000000000000e+00  -5.6956662682419792e-03 -6.8164798600195940e-03 0.0000000000000000e+00  -4.3899362392135393e-03 -7.6586559476711311e-03 0.0000000000000000e+00  -2.9080765631906411e-03 -8.3030888979438427e-03 0.0000000000000000e+00  -1.3044433586390390e-03 -8.1320191493351110e-03 0.0000000000000000e+00  0.0000000000000000e+00 0.0000000000000000e+00 0.0000000000000000e+00  0.0000000000000000e+00 0.0000000000000000e+00 0.0000000000000000e+00  -1.5999762825621628e-03 9.8168060183931750e-03 0.0000000000000000e+00  -3.4272328587018732e-03 9.8131682405600586e-03 0.0000000000000000e+00  -5.1131863038894488e-03 9.0215129851794421e-03 0.0000000000000000e+00  -6.5831171586162498e-03 8.0107970193744986e-03 0.0000000000000000e+00  -7.8064649731387579e-03 6.8365938764179983e-03 0.0000000000000000e+00  -8.7783787950511446e-03 5.5541455237640876e-03 0.0000000000000000e+00  -9.5099942659178614e-03 4.2101303080788206e-03 0.0000000000000000e+00  -1.0019599935773817e-02 2.8359024335659760e-03 0.0000000000000000e+00  -1.0325218936142222e-02 1.4485146246863993e-03 0.0000000000000000e+00  -1.0439375784559248e-02 5.4588341249926313e-05 0.0000000000000000e+00  -1.0366012634667963e-02 -1.3447960799876310e-03 0.0000000000000000e+00  -1.0099244471941415e-02 -2.7488300961951142e-03 0.0000000000000000e+00  -9.6238331248563232e-03 -4.1514835076152347e-03 0.0000000000000000e+00  -8.9176860179051957e-03 -5.5359374623482564e-03 0.0000000000000000e+00  -7.9569884456912893e-03 -6.8696695822369784e-03 0.0000000000000000e+00  -6.7245212832129399e-03 -8.1027643394461103e-03 0.0000000000000000e+00  -5.2209251402876872e-03 -9.1752493633807299e-03 0.0000000000000000e+00  -3.4773480495797083e-03 -1.0009446077769013e-02 0.0000000000000000e+00  -1.5617866597614921e-03 -9.8390055590814492e-03 0.0000000000000000e+00  0.0000000000000000e+00 0.0000000000000000e+00 0.0000000000000000e+00  0.0000000000000000e+00 0.0000000000000000e+00 0.0000000000000000e+00  -1.9449198394345167e-03 1.1827751190294519e-02 0.0000000000000000e+00  -4.1387599342657616e-03 1.1769887772756216e-02 0.0000000000000000e+00  -6.1264789622201667e-03 1.0739545495804742e-02 0.0000000000000000e+00  -7.8146544617390176e-03 9.4487222669421157e-03 0.0000000000000000e+00  -9.1763432049141152e-03 7.9855199065492124e-03 0.0000000000000000e+00  -1.0222864090666499e-02 6.4285508574631152e-03 0.0000000000000000e+00  -1.0986272561516176e-02 4.8365699273974841e-03 0.0000000000000000e+00  -1.1504664954178134e-02 3.2424758719405288e-03 0.0000000000000000e+00  -1.1811444827896974e-02 1.6574088405526977e-03 0.0000000000000000e+00  -1.1928788396439679e-02 7.7650958912519176e-05 0.0000000000000000e+00  -1.1864244359512801e-02 -1.5082245650938630e-03 0.0000000000000000e+00  -1.1609317495495932e-02 -3.1123933229296164e-03 0.0000000000000000e+00  -1.1139569546164799e-02 -4.7405636236143352e-03 0.0000000000000000e+00  -1.0416730173507856e-02 -6.3839078967965132e-03 0.0000000000000000e+00  -9.3943917098019379e-03 -8.0105168802537471e-03 0.0000000000000000e+00  -8.0292404863394565e-03 -9.5593241612568301e-03 0.0000000000000000e+00  -6.2994619693966082e-03 -1.0945051269639156e-02 0.0000000000000000e+00  -4.2290432249363439e-03 -1.2047927914451835e-02 0.0000000000000000e+00  -1.9036180601619880e-03 -1.1903690329755457e-02 0.0000000000000000e+00  0.0000000000000000e+00 0.0000000000000000e+00 0.0000000000000000e+00  0.0000000000000000e+00 0.0000000000000000e+00 0.0000000000000000e+00  -2.4135330251937111e-03 1.4283785569557967e-02 0.0000000000000000e+00  -5.0889952973342699e-03 1.4117288921480713e-02 0.0000000000000000e+00  -7.4496655554956593e-03 1.2742469976703990e-02 0.0000000000000000e+00  -9.3791132181033198e-03 1.1064556031126181e-02 0.0000000000000000e+00  -1.0865014725217460e-02 9.2244551833881618e-03 0.0000000000000000e+00  -1.1951457338776877e-02 7.3332101436187624e-03 0.0000000000000000e+00  -1.2706673443779138e-02 5.4612697755605016e-03 0.0000000000000000e+00  -1.3199346571072612e-02 3.6374419758013442e-03 0.0000000000000000e+00  -1.3484563576300224e-02 1.8596614252462003e-03 0.0000000000000000e+00  -1.3597324216027395e-02 1.0667550170250734e-04 0.0000000000000000e+00  -1.3550094563704655e-02 -1.6523097711801254e-03 0.0000000000000000e+00  -1.3331746329072060e-02 -3.4495542506033133e-03 0.0000000000000000e+00  -1.2906766492168787e-02 -5.3105285770710152e-03 0.0000000000000000e+00  -1.2215394563834119e-02 -7.2434486124252758e-03 0.0000000000000000e+00  -1.1177571728017139e-02 -9.2254817485261202e-03 0.0000000000000000e+00  -9.7054793341449820e-03 -1.1188435861991588e-02 0.0000000000000000e+00  -7.7308072279053813e-03 -1.3014764972407991e-02 0.0000000000000000e+00  -5.2512363695327415e-03 -1.4516827168559274e-02 0.0000000000000000e+00  -2.3719149508670575e-03 -1.4451131281922333e-02 0.0000000000000000e+00  0.0000000000000000e+00 0.0000000000000000e+00 0.0000000000000000e+00  0.0000000000000000e+00 0.0000000000000000e+00 0.0000000000000000e+00  -3.0749744281408707e-03 1.7347932933031350e-02 0.0000000000000000e+00  -6.4004677412972518e-03 1.6970162911596639e-02 0.0000000000000000e+00  -9.2207786221251871e-03 1.5075661651882432e-02 0.0000000000000000e+00  -1.1396710497064371e-02 1.2845696550412563e-02 0.0000000000000000e+00  -1.2957181833936762e-02 1.0506862277175042e-02 0.0000000000000000e+00  -1.401102670716