<?xml version="1.0"?>
<VTKFile type="UnstructuredGrid"  version="0.1"  >
<UnstructuredGrid>
<Piece  NumberOfPoints="441" NumberOfCells="800">
<Points>
<DataArray  type="Float64"  NumberOfComponents="3"  format="ascii">0 0 0  0.05 0 0  0.1 0 0  0.15 0 0  0.2 0 0  0.25 0 0  0.3 0 0  0.35 0 0  0.4 0 0  0.45 0 0  0.5 0 0  0.55 0 0  0.6 0 0  0.65 0 0  0.7 0 0  0.75 0 0  0.8 0 0  0.85 0 0  0.9 0 0  0.95 0 0  1 0 0  0 0.05 0  0.05 0.05 0  0.1 0.05 0  0.15 0.05 0  0.2 0.05 0  0.25 0.05 0  0.3 0.05 0  0.35 0.05 0  0.4 0.05 0  0.45 0.05 0  0.5 0.05 0  0.55 0.05 0  0.6 0.05 0  0.65 0.05 0  0.7 0.05 0  0.75 0.05 0  0.8 0.05 0  0.85 0.05 0  0.9 0.05 0  0.95 0.05 0  1 0.05 0  0 0.1 0  0.05 0.1 0  0.1 0.1 0  0.15 0.1 0  0.2 0.1 0  0.25 0.1 0  0.3 0.1 0  0.35 0.1 0  0.4 0.1 0  0.45 0.1 0  0.5 0.1 0  0.55 0.1 0  0.6 0.1 0  0.65 0.1 0  0.7 0.1 0  0.75 0.1 0  0.8 0.1 0  0.85 0.1 0  0.9 0.1 0  0.95 0.1 0  1 0.1 0  0 0.15 0  0.05 0.15 0  0.1 0.15 0  0.15 0.15 0  0.2 0.15 0  0.25 0.15 0  0.3 0.15 0  0.35 0.15 0  0.4 0.15 0  0.45 0.15 0  0.5 0.15 0  0.55 0.15 0  0.6 0.15 0  0.65 0.15 0  0.7 0.15 0  0.75 0.15 0  0.8 0.15 0  0.85 0.15 0  0.9 0.15 0  0.95 0.15 0  1 0.15 0  0 0.2 0  0.05 0.2 0  0.1 0.2 0  0.15 0.2 0  0.2 0.2 0  0.25 0.2 0  0.3 0.2 0  0.35 0.2 0  0.4 0.2 0  0.45 0.2 0  0.5 0.2 0  0.55 0.2 0  0.6 0.2 0  0.65 0.2 0  0.7 0.2 0  0.75 0.2 0  0.8 0.2 0  0.85 0.2 0  0.9 0.2 0  0.95 0.2 0  1 0.2 0  0 0.25 0  0.05 0.25 0  0.1 0.25 0  0.15 0.25 0  0.2 0.25 0  0.25 0.25 0  0.3 0.25 0  0.35 0.25 0  0.4 0.25 0  0.45 0.25 0  0.5 0.25 0  0.55 0.25 0  0.6 0.25 0  0.65 0.25 0  0.7 0.25 0  0.75 0.25 0  0.8 0.25 0  0.85 0.25 0  0.9 0.25 0  0.95 0.25 0  1 0.25 0  0 0.3 0  0.05 0.3 0  0.1 0.3 0  0.15 0.3 0  0.2 0.3 0  0.25 0.3 0  0.3 0.3 0  0.35 0.3 0  0.4 0.3 0  0.45 0.3 0  0.5 0.3 0  0.55 0.3 0  0.6 0.3 0  0.65 0.3 0  0.7 0.3 0  0.75 0.3 0  0.8 0.3 0  0.85 0.3 0  0.9 0.3 0  0.95 0.3 0  1 0.3 0  0 0.35 0  0.05 0.35 0  0.1 0.35 0  0.15 0.35 0  0.2 0.35 0  0.25 0.35 0  0.3 0.35 0  0.35 0.35 0  0.4 0.35 0  0.45 0.35 0  0.5 0.35 0  0.55 0.35 0  0.6 0.35 0  0.65 0.35 0  0.7 0.35 0  0.75 0.35 0  0.8 0.35 0  0.85 0.35 0  0.9 0.35 0  0.95 0.35 0  1 0.35 0  0 0.4 0  0.05 0.4 0  0.1 0.4 0  0.15 0.4 0  0.2 0.4 0  0.25 0.4 0  0.3 0.4 0  0.35 0.4 0  0.4 0.4 0  0.45 0.4 0  0.5 0.4 0  0.55 0.4 0  0.6 0.4 0  0.65 0.4 0  0.7 0.4 0  0.75 0.4 0  0.8 0.4 0  0.85 0.4 0  0.9 0.4 0  0.95 0.4 0  1 0.4 0  0 0.45 0  0.05 0.45 0  0.1 0.45 0  0.15 0.45 0  0.2 0.45 0  0.25 0.45 0  0.3 0.45 0  0.35 0.45 0  0.4 0.45 0  0.45 0.45 0  0.5 0.45 0  0.55 0.45 0  0.6 0.45 0  0.65 0.45 0  0.7 0.45 0  0.75 0.45 0  0.8 0.45 0  0.85 0.45 0  0.9 0.45 0  0.95 0.45 0  1 0.45 0  0 0.5 0  0.05 0.5 0  0.1 0.5 0  0.15 0.5 0  0.2 0.5 0  0.25 0.5 0  0.3 0.5 0  0.35 0.5 0  0.4 0.5 0  0.45 0.5 0  0.5 0.5 0  0.55 0.5 0  0.6 0.5 0  0.65 0.5 0  0.7 0.5 0  0.75 0.5 0  0.8 0.5 0  0.85 0.5 0  0.9 0.5 0  0.95 0.5 0  1 0.5 0  0 0.55 0  0.05 0.55 0  0.1 0.55 0  0.15 0.55 0  0.2 0.55 0  0.25 0.55 0  0.3 0.55 0  0.35 0.55 0  0.4 0.55 0  0.45 0.55 0  0.5 0.55 0  0.55 0.55 0  0.6 0.55 0  0.65 0.55 0  0.7 0.55 0  0.75 0.55 0  0.8 0.55 0  0.85 0.55 0  0.9 0.55 0  0.95 0.55 0  1 0.55 0  0 0.6 0  0.05 0.6 0  0.1 0.6 0  0.15 0.6 0  0.2 0.6 0  0.25 0.6 0  0.3 0.6 0  0.35 0.6 0  0.4 0.6 0  0.45 0.6 0  0.5 0.6 0  0.55 0.6 0  0.6 0.6 0  0.65 0.6 0  0.7 0.6 0  0.75 0.6 0  0.8 0.6 0  0.85 0.6 0  0.9 0.6 0  0.95 0.6 0  1 0.6 0  0 0.65 0  0.05 0.65 0  0.1 0.65 0  0.15 0.65 0  0.2 0.65 0  0.25 0.65 0  0.3 0.65 0  0.35 0.65 0  0.4 0.65 0  0.45 0.65 0  0.5 0.65 0  0.55 0.65 0  0.6 0.65 0  0.65 0.65 0  0.7 0.65 0  0.75 0.65 0  0.8 0.65 0  0.85 0.65 0  0.9 0.65 0  0.95 0.65 0  1 0.65 0  0 0.7 0  0.05 0.7 0  0.1 0.7 0  0.15 0.7 0  0.2 0.7 0  0.25 0.7 0  0.3 0.7 0  0.35 0.7 0  0.4 0.7 0  0.45 0.7 0  0.5 0.7 0  0.55 0.7 0  0.6 0.7 0  0.65 0.7 0  0.7 0.7 0  0.75 0.7 0  0.8 0.7 0  0.85 0.7 0  0.9 0.7 0  0.95 0.7 0  1 0.7 0  0 0.75 0  0.05 0.75 0  0.1 0.75 0  0.15 0.75 0  0.2 0.75 0  0.25 0.75 0  0.3 0.75 0  0.35 0.75 0  0.4 0.75 0  0.45 0.75 0  0.5 0.75 0  0.55 0.75 0  0.6 0.75 0  0.65 0.75 0  0.7 0.75 0  0.75 0.75 0  0.8 0.75 0  0.85 0.75 0  0.9 0.75 0  0.95 0.75 0  1 0.75 0  0 0.8 0  0.05 0.8 0  0.1 0.8 0  0.15 0.8 0  0.2 0.8 0  0.25 0.8 0  0.3 0.8 0  0.35 0.8 0  0.4 0.8 0  0.45 0.8 0  0.5 0.8 0  0.55 0.8 0  0.6 0.8 0  0.65 0.8 0  0.7 0.8 0  0.75 0.8 0  0.8 0.8 0  0.85 0.8 0  0.9 0.8 0  0.95 0.8 0  1 0.8 0  0 0.85 0  0.05 0.85 0  0.1 0.85 0  0.15 0.85 0  0.2 0.85 0  0.25 0.85 0  0.3 0.85 0  0.35 0.85 0  0.4 0.85 0  0.45 0.85 0  0.5 0.85 0  0.55 0.85 0  0.6 0.85 0  0.65 0.85 0  0.7 0.85 0  0.75 0.85 0  0.8 0.85 0  0.85 0.85 0  0.9 0.85 0  0.95 0.85 0  1 0.85 0  0 0.9 0  0.05 0.9 0  0.1 0.9 0  0.15 0.9 0  0.2 0.9 0  0.25 0.9 0  0.3 0.9 0  0.35 0.9 0  0.4 0.9 0  0.45 0.9 0  0.5 0.9 0  0.55 0.9 0  0.6 0.9 0  0.65 0.9 0  0.7 0.9 0  0.75 0.9 0  0.8 0.9 0  0.85 0.9 0  0.9 0.9 0  0.95 0.9 0  1 0.9 0  0 0.95 0  0.05 0.95 0  0.1 0.95 0  0.15 0.95 0  0.2 0.95 0  0.25 0.95 0  0.3 0.95 0  0.35 0.95 0  0.4 0.95 0  0.45 0.95 0  0.5 0.95 0  0.55 0.95 0  0.6 0.95 0  0.65 0.95 0  0.7 0.95 0  0.75 0.95 0  0.8 0.95 0  0.85 0.95 0  0.9 0.95 0  0.95 0.95 0  1 0.95 0  0 1 0  0.05 1 0  0.1 1 0  0.15 1 0  0.2 1 0  0.25 1 0  0.3 1 0  0.35 1 0  0.4 1 0  0.45 1 0  0.5 1 0  0.55 1 0  0.6 1 0  0.65 1 0  0.7 1 0  0.75 1 0  0.8 1 0  0.85 1 0  0.9 1 0  0.95 1 0  1 1 0  </DataArray>
</Points>
<Cells>
[...]
<PointData  Vectors="f_137"> 
<DataArray  type="Float64"  Name="f_137"  NumberOfComponents="3" format="ascii">0.0000000000000000e+00 0.0000000000000000e+00 0.0000000000000000e+00  0.0000000000000000e+00 0.0000000000000000e+00 0.0000000000000000e+00  0.0000000000000000e+00 0.0000000000000000e+00 0.0000000000000000e+00  0.0000000000000000e+00 0.0000000000000000e+00 0.0000000000000000e+00  0.0000000000000000e+00 0.0000000000000000e+00 0.0000000000000000e+00  0.0000000000000000e+00 0.0000000000000000e+00 0.0000000000000000e+00  0.0000000000000000e+00 0.0000000000000000e+00 0.0000000000000000e+00  0.0000000000000000e+00 0.0000000000000000e+00 0.0000000000000000e+00  0.0000000000000000e+00 0.0000000000000000e+00 0.0000000000000000e+00  0.0000000000000000e+00 0.0000000000000000e+00 0.0000000000000000e+00  0.0000000000000000e+00 0.0000000000000000e+00 0.0000000000000000e+00  0.0000000000000000e+00 0.0000000000000000e+00 0.0000000000000000e+00  0.0000000000000000e+00 0.0000000000000000e+00 0.0000000000000000e+00  0.0000000000000000e+00 0.0000000000000000e+00 0.0000000000000000e+00  0.0000000000000000e+00 0.0000000000000000e+00 0.0000000000000000e+00  0.0000000000000000e+00 0.0000000000000000e+00 0.0000000000000000e+00  0.0000000000000000e+00 0.0000000000000000e+00 0.0000000000000000e+00  0.0000000000000000e+00 0.0000000000000000e+00 0.0000000000000000e+00  0.0000000000000000e+00 0.0000000000000000e+00 0.0000000000000000e+00  0.0000000000000000e+00 0.0000000000000000e+00 0.0000000000000000e+00  0.0000000000000000e+00 0.0000000000000000e+00 0.0000000000000000e+00  0.0000000000000000e+00 0.0000000000000000e+00 0.0000000000000000e+00  -8.1746019682161239e-04 8.0981555834667366e-04 0.0000000000000000e+00  -2.3040847684439882e-03 9.4199466109223730e-04 0.0000000000000000e+00  -3.8166699951650003e-03 8.9812607877909627e-04 0.0000000000000000e+00  -5.2333353618209061e-03 8.3150666115978044e-04 0.0000000000000000e+00  -6.5221836923210590e-03 7.4436565063312884e-04 0.0000000000000000e+00  -7.6493433107720291e-03 6.3815511513753238e-04 0.0000000000000000e+00  -8.5854898468222147e-03 5.1458104615947193e-04 0.0000000000000000e+00  -9.3045860022763736e-03 3.7564248136667724e-04 0.0000000000000000e+00  -9.7844998126224332e-03 2.2370814850616175e-04 0.0000000000000000e+00  -1.0007560743034166e-02 6.1580669373408769e-05 0.0000000000000000e+00  -9.9612334346519289e-03 -1.0737772597002280e-04 0.0000000000000000e+00  -9.6389863291096774e-03 -2.7911790885749160e-04 0.0000000000000000e+00  -9.0413134830136244e-03 -4.4881904653573521e-04 0.0000000000000000e+00  -8.1768581369767168e-03 -6.1091320500638116e-04 0.0000000000000000e+00  -7.0632954292094482e-03 -7.5924192659970128e-04 0.0000000000000000e+00  -5.7281155722471193e-03 -8.8741133902018048e-04 0.0000000000000000e+00  -4.2083568914087679e-03 -9.8855671071388664e-04 0.0000000000000000e+00  -2.5577899640842339e-03 -1.0449660258590886e-03 0.0000000000000000e+00  -9.0008567311682466e-04 -9.0018644338807656e-04 0.0000000000000000e+00  0.0000000000000000e+00 0.0000000000000000e+00 0.0000000000000000e+00  0.0000000000000000e+00 0.0000000000000000e+00 0.0000000000000000e+00  -1.0037244059932684e-03 2.3320670172742373e-03 0.0000000000000000e+00  -2.7695510446099957e-03 2.6531600328467166e-03 0.0000000000000000e+00  -4.5444749619741494e-03 2.5398885764415040e-03 0.0000000000000000e+00  -6.2108198992161029e-03 2.3476090381193849e-03 0.0000000000000000e+00  -7.7232141510051250e-03 2.0962963306397019e-03 0.0000000000000000e+00  -9.0428767448146024e-03 1.7915488745938214e-03 0.0000000000000000e+00  -1.0135952994321223e-02 1.4388146224048653e-03 0.0000000000000000e+00  -1.0972810546014622e-02 1.0443639581088672e-03 0.0000000000000000e+00  -1.1528637860397281e-02 6.1525935951300698e-04 0.0000000000000000e+00  -1.1783808664795409e-02 1.5956292014308182e-04 0.0000000000000000e+00  -1.1724499015169263e-02 -3.1333588341614615e-04 0.0000000000000000e+00  -1.1343562282508046e-02 -7.9236317959107858e-04 0.0000000000000000e+00  -1.0641658356665307e-02 -1.2644989294601436e-03 0.0000000000000000e+00  -9.6285990292881308e-03 -1.7147645244277759e-03 0.0000000000000000e+00  -8.3244484012722306e-03 -2.1266109538296534e-03 0.0000000000000000e+00  -6.7610097346795994e-03 -2.4826614371704775e-03 0.0000000000000000e+00  -4.9812283301328584e-03 -2.7642241271238709e-03 0.0000000000000000e+00  -3.0460411671448581e-03 -2.9290032731461562e-03 0.0000000000000000e+00  -1.1019700429764280e-03 -2.5963043381766792e-03 0.0000000000000000e+00  0.0000000000000000e+00 0.0000000000000000e+00 0.0000000000000000e+00  0.0000000000000000e+00 0.0000000000000000e+00 0.0000000000000000e+00  -1.0530450906504035e-03 4.0009748626684792e-03 0.0000000000000000e+00  -2.9214850689524910e-03 4.5109089382452377e-03 0.0000000000000000e+00  -4.7961279242489966e-03 4.3170870532489858e-03 0.0000000000000000e+00  -6.5569476535788929e-03 3.9881529394773891e-03 0.0000000000000000e+00  -8.1558261053369142e-03 3.5586630405867702e-03 0.0000000000000000e+00  -9.5532940648213917e-03 3.0388150886511297e-03 0.0000000000000000e+00  -1.0714140084823477e-02 2.4385693325811369e-03 0.0000000000000000e+00  -1.1607732010317380e-02 1.7688158244452562e-03 0.0000000000000000e+00  -1.2208100632240062e-02 1.0414789115658313e-03 0.0000000000000000e+00  -1.2494132100092687e-02 2.6990606184708831e-04 0.0000000000000000e+00  -1.2450056060045596e-02 -5.3052332981340779e-04 0.0000000000000000e+00  -1.2066330672596536e-02 -1.3416843091592478e-03 0.0000000000000000e+00  -1.1340981806606067e-02 -2.1421103644472797e-03 0.0000000000000000e+00  -1.0281388619117210e-02 -2.9068010363287062e-03 0.0000000000000000e+00  -8.9060085269578385e-03 -3.6077128786710304e-03 0.0000000000000000e+00  -7.2465962523892286e-03 -4.2149580418960209e-03 0.0000000000000000e+00  -5.3477219188047369e-03 -4.6961380226961079e-03 0.0000000000000000e+00  -3.2747424137001052e-03 -4.9832715316154384e-03 0.0000000000000000e+00  -1.1859318706547743e-03 -4.4450365877098299e-03 0.0000000000000000e+00  0.0000000000000000e+00 0.0000000000000000e+00 0.0000000000000000e+00  0.0000000000000000e+00 0.0000000000000000e+00 0.0000000000000000e+00  -1.1268585530483410e-03 5.7675525021609981e-03 0.0000000000000000e+00  -3.1280748256916364e-03 6.4845977826756317e-03 0.0000000000000000e+00  -5.1367663712770803e-03 6.2059607410186405e-03 0.0000000000000000e+00  -7.0236043786371903e-03 5.7327273424612364e-03 0.0000000000000000e+00  -8.7381325651933201e-03 5.1157131985662884e-03 0.0000000000000000e+00  -1.0239549255415509e-02 4.3703169980017836e-03 0.0000000000000000e+00  -1.1491503697603538e-02 3.5111291497297893e-03 0.0000000000000000e+00  -1.2462430335703921e-02 2.5535706223117028e-03 0.0000000000000000e+00  -1.3125110536511261e-02 1.5140711931418182e-03 0.0000000000000000e+00  -1.3456538526914042e-02 4.1064695708518267e-04 0.0000000000000000e+00  -1.3438124183448611e-02 -7.3606866147131347e-04 0.0000000000000000e+00  -1.3056526550701256e-02 -1.9015295763284766e-03 0.0000000000000000e+00  -1.2305268248464405e-02 -3.0560537780306043e-03 0.0000000000000000e+00  -1.1187215781149852e-02 -4.1641421782902524e-03 0.0000000000000000e+00  -9.7173098033598200e-03 -5.1848610567785244e-03 0.0000000000000000e+00  -7.9261563195796234e-03 -6.0734799001848656e-03 0.0000000000000000e+00  -5.8603046720575140e-03 -6.7811292166453279e-03 0.0000000000000000e+00  -3.5924336110482909e-03 -7.2096182494506902e-03 0.0000000000000000e+00  -1.3006782114329655e-03 -6.4519582476640245e-03 0.0000000000000000e+00  0.0000000000000000e+00 0.0000000000000000e+00 0.0000000000000000e+00  0.0000000000000000e+00 0.0000000000000000e+00 0.0000000000000000e+00  -1.2291322670695368e-03 7.6791657036889491e-03 0.0000000000000000e+00  -3.4122763523937948e-03 8.6192575339801240e-03 0.0000000000000000e+00  -5.6032628876663531e-03 8.2480155908056154e-03 0.0000000000000000e+00  -7.6607131430536241e-03 7.6190333566625960e-03 0.0000000000000000e+00  -9.5312020424879341e-03 6.8011443647817459e-03 0.0000000000000000e+00  -1.1172138913265045e-02 5.8156049323398393e-03 0.0000000000000000e+00  -1.2546248235267175e-02 4.6820090138819485e-03 0.0000000000000000e+00  -1.3621315382365459e-02 3.4202721460868100e-03 0.0000000000000000e+00  -1.4369098025988339e-02 2.0507437866314053e-03 0.0000000000000000e+00  -1.4764537613985228e-02 5.9504769454801505e-04 0.0000000000000000e+00  -1.4785421553478829e-02 -9.2227752406046624e-04 0.0000000000000000e+00  -1.4412982606119765e-02 -2.4715660092451412e-03 0.0000000000000000e+00  -1.3633769772962460e-02 -4.0156914447472426e-03 0.0000000000000000e+00  -1.2443083927005560e-02 -5.5083411011662671e-03 0.0000000000000000e+00  -1.0849309862699264e-02 -6.8938197716807989e-03 0.0000000000000000e+00  -8.8798628052078801e-03 -8.1089972625565838e-03 0.0000000000000000e+00  -6.5831752388331877e-03 -9.0834377048718655e-03 0.0000000000000000e+00  -4.0424376861660470e-03 -9.6810531256624512e-03 0.0000000000000000e+00  -1.4641663417924418e-03 -8.6832605248744945e-03 0.0000000000000000e+00  0.0000000000000000e+00 0.0000000000000000e+00 0.0000000000000000e+00  0.0000000000000000e+00 0.0000000000000000e+00 0.0000000000000000e+00  -1.3627842835627778e-03 9.7828032892194154e-03 0.0000000000000000e+00  -3.7828639414087717e-03 1.0966640491535000e-02 0.0000000000000000e+00  -6.2092455663206982e-03 1.0492365191645054e-02 0.0000000000000000e+00  -8.4856120898112695e-03 9.6917465734084988e-03 0.0000000000000000e+00  -1.0554702969602066e-02 8.6544950235158766e-03 0.0000000000000000e+00  -1.2372170563699103e-02 7.4091946899369470e-03 0.0000000000000000e+00  -1.3900485882433474e-02 5.9812645221904662e-03 0.0000000000000000e+00  -1.5107753039612610e-02 4.3951336421747386e-03 0.0000000000000000e+00  -1.5965608133346784e-02 2.6742233092593632e-03 0.0000000000000000e+00  -1.6447341355340310e-02 8.4209110239830175e-04 0.0000000000000000e+00  -1.6526587823856645e-02 -1.0751066962810742e-03 0.0000000000000000e+00  -1.6177299225012928e-02 -3.0450302625266803e-03 0.0000000000000000e+00  -1.5375662936521102e-02 -5.0249825494844162e-03 0.0000000000000000e+00  -1.4104691491963023e-02 -6.9581856288645433e-03 0.0000000000000000e+00  -1.2360928964234014e-02 -8.7720303631553809e-03 0.0000000000000000e+00  -1.0164314182155083e-02 -1.0379745035472615e-02 0.0000000000000000e+00  -7.5635925888247277e-03 -1.1681149906879568e-02 0.0000000000000000e+00  -4.6556843142443261e-03 -1.2490174792305669e-02 0.0000000000000000e+00  -1.6878318858358260e-03 -1.1226162040990124e-02 0.0000000000000000e+00  0.0000000000000000e+00 0.0000000000000000e+00 0.0000000000000000e+00  0.0000000000000000e+00 0.0000000000000000e+00 0.0000000000000000e+00  -1.5321370662171271e-03 1.2132925087968252e-02 0.0000000000000000e+00  -4.2511027133488180e-03 1.3585174665491074e-02 0.0000000000000000e+00  -6.9718145504282470e-03 1.2992230515834986e-02 0.0000000000000000e+00  -9.5191005641162580e-03 1.1997544667741465e-02 0.0000000000000000e+00  -1.1831073680590208e-02 1.0715811985820261e-02 0.0000000000000000e+00  -1.3862243040092526e-02 9.1852614171607852e-03 0.0000000000000000e+00  -1.5576344776597490e-02 7.4385333377212396e-03 0.0000000000000000e+00  -1.6943831674409916e-02 5.5047781100593532e-03 0.0000000000000000e+00  -1.7938230172933986e-02 3.4093486965939292e-03 0.0000000000000000e+00  -1.8532590865483863e-02 1.1752388968785973e-03 0.0000000000000000e+00  -1.8696530630886336e-02 -1.1734287259981336e-03 0.0000000000000000e+00  -1.8394881891449118e-02 -3.6059435986661769e-03 0.0000000000000000e+00  -1.7589046101842143e-02 -6.0780511911486838e-03 0.0000000000000000e+00  -1.6242564976623297e-02 -8.5246359961980416e-03 0.0000000000000000e+00  -1.4331013241353521e-02 -1.0854343206602618e-02 0.0000000000000000e+00  -1.1858318558785799e-02 -1.2949392970062826e-02 0.0000000000000000e+00  -8.8689387444028014e-03 -1.4666952956374180e-02 0.0000000000000000e+00  -5.4770153208830033e-03 -1.5751819007335226e-02 0.0000000000000000e+00  -1.9883507662826804e-03 -1.4190014641732111e-02 0.0000000000000000e+00  0.0000000000000000e+00 0.0000000000000000e+00 0.0000000000000000e+00  0.0000000000000000e+00 0.0000000000000000e+00 0.0000000000000000e+00  -1.7436396774602070e-03 1.4792267947733305e-02 0.0000000000000000e+00  -4.8336259192871588e-03 1.6540819079698222e-02 0.0000000000000000e+00  -7.9153262819267132e-03 1.5806229132042472e-02 0.0000000000000000e+00  -1.0789796017969812e-02 1.4585909281363484e-02 0.0000000000000000e+00  -1.3389912716035375e-02 1.3025612314640030e-02 0.0000000000000000e+00  -1.5670472609473657e-02 1.1176983691258156e-02 0.0000000000000000e+00  -1.7599320719588470e-02 9.0822125776381761e-03 0.0000000000000000e+00  -1.9152875313990573e-02 6.7757116613742768e-03 0.0000000000000000e+00  -2.0310259636364607e-02 4.2833356412130055e-03 0.0000000000000000e+00  -2.1047326027797009e-02 1.6240655053865972e-03 0.0000000000000000e+00  -2.1331222451780003e-02 -1.1854650991831850e-03 0.0000000000000000e+00  -2.1116652868931614e-02 -4.1234478738841462e-03 0.0000000000000000e+00  -2.0344968228724676e-02 -7.1520063529156262e-03 0.0000000000000000e+00  -1.8949608900334789e-02 -1.0203379993348333e-02 0.0000000000000000e+00  -1.6869783642522427e-02 -1.3167257935825358e-02 0.0000000000000000e+00  -1.4077188748253072e-02 -1.5885612770309709e-02 0.0000000000000000e+00  -1.0601015826211655e-02 -1.8153332667146721e-02 0.0000000000000000e+00  -6.5752246726976287e-03 -1.9614498558699369e-02 0.0000000000000000e+00  -2.3913568682445894e-03 -1.7718405656844790e-02 0.0000000000000000e+00  0.0000000000000000e+00 0.0000000000000000e+00 0.0000000000000000e+00  0.0000000000000000e+00 0.0000000000000000e+00 0.0000000000000000e+00  -2.0071677363162469e-03 1.7836122803699377e-02 0.0000000000000000e+00  -5.5551404797458490e-03 1.9910618083649148e-02 0.0000000000000000e+00  -9.0749601582161138e-03 1.8999839816324780e-02 0.0000000000000000e+00  -1.2337665537673776e-02 1.7508577585359428e-02 0.0000000000000000e+00  -1.5270645526336725e-02 1.5622829486496662e-02 0.0000000000000000e+00  -1.7831829291888843e-02 1.3413571413970111e-02 0.0000000000000000e+00  -1.9998035046722526e-02 1.0936158449047365e-02 0.0000000000000000e+00  -2.1757529411132060e-02 8.2313042370605449e-03 0.0000000000000000e+00  -2.3101061153595965e-02 5.3237827982630407e-03 0.0000000000000000e+00  -2.4012819063920089e-02 2.2241735566953772e-03 0.0000000000000000e+00  -2.4461982178326926e-02 -1.0662991847721528e-03 0.0000000000000000e+00  -2.4394165470139697e-02 -4.5461507875340524e-03 0.0000000000000000e+00  -2.3725089707460394e-02 -8.1967576043176851e-03 0.0000000000000000e+00  -2.2344418579169311e-02 -1.1959803489936631e-02 0.0000000000000000e+00  -2.0131053275308231e-02 -1.5714091542327922e-02 0.0000000000000000e+00  -1.6993387998889848e-02 -1.9254814521223601e-02 0.0000000000000000e+00  -1.2918267231817965e-02 -2.2282493901819453e-02 0.0000000000000000e+00  -8.0579762668138814e-03 -2.4280878967045168e-02 0.0000000000000000e+00  -2.9358928962732130e-03 -2.2007365317582919e-02 0.0000000000000000e+00  0.0000000000000000e+00 0.0000000000000000e+00 0.0000000000000000e+00  0.0000000000000000e+00 0.0000000000000000e+00 0.0000000000000000e+00  -2.3382074295038146e-03 2.1358818690412684e-02 0.0000000000000000e+00  -6.4532410251652173e-03 2.3787345178682095e-02 0.0000000000000000e+00  -1.0502678980512929e-02 2.2647162730531623e-02 0.0000000000000000e+00  -1.4219552690058427e-02 2.0818537196645323e-02 0.0000000000000000e+00  -1.7526536310869766e-02 1.8541662494605347e-02 0.0000000000000000e+00  -2.0390072743874433e-02 1.5915823127214360e-02 0.0000000000000000e+00  -2.2803903633912600e-02 1.3014755441142278e-02 0.0000000000000000e+00  -2.4777029265271509e-02 9.8870910641638398e-03 0.0000000000000000e+00  -2.6320751039456913e-02 6.5548785578653686e-03 0.0000000000000000e+00  -2.7437029904182696e-02 3.0148330960019076e-03 0.0000000000000000e+00  -2.8105593828161059e-02 -7.5670246305143416e-04 0.0000000000000000e+00  -2.8266268184815875e-02 -4.7907491860484704e-03 0.0000000000000000e+00  -2.7810935946601226e-02 -9.1086380263029360e-03 0.0000000000000000e+00  -2.6574282545087247e-02 -1.3698902627740279e-02 0.0000000000000000e+00  -2.4334381360688329e-02 -1.8460481519873201e-02 0.0000000000000000e+00  -2.0872016822161513e-02 -2.3128624530203531e-02 0.0000000000000000e+00  -1.6071228297550096e-02 -2.7243741795990276e-02 0.0000000000000000e+00  -1.0096766338811838e-02 -3.0029152091335214e-02 0.0000000000000000e+00  -3.6849277049259151e-03 -2.7328752046836730e-02 0.0000000000000000e+00  0.0000000000000000e+00 0.0000000000000000e+00 0.0000000000000000e+00  0.0000000000000000e+00 0.0000000000000000e+00 0.0000000000000000e+00  -2.7619017759809303e-03 2.5484364027823073e-02 0.0000000000000000e+00  -7.5868556518587814e-03 2.8286637514650315e-02 0.0000000000000000e+00  -1.2277134411270572e-02 2.6832926042954265e-02 0.0000000000000000e+00  -1.6517917204764563e-02 2.4567421652981467e-02 0.0000000000000000e+00  -2.0230708473157152e-02 2.1805874502266391e-02 0.0000000000000000e+00  -2.3400594734893924e-02 1.8688908876585138e-02 0.0000000000000000e+00  -2.6050918348511521e-02 1.5315275218372230e-02 0.0000000000000000e+00  -2.8223983136543104e-02 1.1743191243434531e-02 0.0000000000000000e+00  -2.9964165618778828e-02 7.9899387019270809e-03 0.0000000000000000e+00  -3.1304672265740137e-02 4.0336826859977189e-03 0.0000000000000000e+00  -3.2245025216319362e-02 -1.7941900552061573e-04 0.0000000000000000e+00  -3.2737525813720442e-02 -4.7346913959033102e-03 0.0000000000000000e+00  -3.2679750906791073e-02 -9.7520945799290156e-03 0.0000000000000000e+00  -3.1817050388019734e-02 -1.5317847258265056e-02 0.0000000000000000e+00  -2.9772295704869615e-02 -2.1335353559529122e-02 0.0000000000000000e+00  -2.6105815312540831e-02 -2.7496651231338758e-02 0.0000000000000000e+00  -2.0475069709330797e-02 -3.3190449461322616e-02 0.0000000000000000e+00  -1.2996400486477459e-02 -3.7238237226618565e-02 0.0000000000000000e+00  -4.7566099244026197e-03 -3.4122387370986516e-02 0.0000000000000000e+00  0.0000000000000000e+00 0.0000000000000000e+00 0.0000000000000000e+00  0.0000000000000000e+00 0.0000000000000000e+00 0.0000000000000000e+00  -3.3207615861687279e-03 3.0384510754049490e-02 0.0000000000000000e+00  -9.0513959974301665e-03 3.3557732306800744e-02 0.0000000000000000e+00  -1.4520314597509579e-02 3.1653999643541410e-02 0.0000000000000000e+00  -1.9354362889421169e-02 2.8799669411249489e-02 0.0000000000000000e+00  -2.3484528111015462e-02 2.5418999443613526e-02 0.0000000000000000e+00  -2.6933886804421610e-02 2.1711447449755453e-02 0.0000000000000000e+00  -2.9775327533081552e-02 1.7807126406366041e-02 0.0000000000000000e+00  -3.2101370576650128e-02 1.3773585514419755e-02 0.0000000000000000e+00  -3.4004920101714346e-02 9.6207983205034119e-03 0.0000000000000000e+00  -3.5561436003485485e-02 5.3075818451851844e-03 0.0000000000000000e+00  -3.6806754537187146e-02 7.4237082238489131e-04 0.0000000000000000e+00  -3.7773436026719211e-02 -4.2512202985584661e-03 0.0000000000000000e+00  -3.8342050052940849e-02 -9.8611021227499526e-03 0.0000000000000000e+00  -3.8138858454328801e-02 -1.6213419055111412e-02 0.0000000000000000e+00  -3.6802745481278425e-02 -2.3527067322393264e-02 0.0000000000000000e+00  -3.3400586374302418e-02 -3.1965984239795679e-02 0.0000000000000000e+00  -2.6954451859545980e-02 -4.0480121520984527e-02 0.0000000000000000e+00  -1.7289326579998699e-02 -4.6786983278567000e-02 0.0000000000000000e+00  -6.2989803830113475e-03 -4.3143976501394482e-02 0.0000000000000000e+00  0.0000000000000000e+00 0.0000000000000000e+00 0.0000000000000000e+00  0.0000000000000000e+00 0.0000000000000000e+00 0.0000000000000000e+00  -4.0901726774112282e-03 3.6310249132784155e-02 0.0000000000000000e+00  -1.1006697078602988e-02 3.9799657798273422e-02 0.0000000000000000e+00  -1.7425857575233253e-02 3.7218054442467417e-02 0.0000000000000000e+00  -2.2909847344919982e-02 3.3539655737326250e-02 0.0000000000000000e+00  -2.7427794336283225e-02 2.9347446695083254e-02 0.0000000000000000e+00  -3.1078188897931160e