<?xml version="1.0"?>
<VTKFile type="UnstructuredGrid"  version="0.1"  >
<UnstructuredGrid>
<Piece  NumberOfPoints="441" NumberOfCells="800">
<Points>
<DataArray  type="Float64"  NumberOfComponents="3"  format="ascii">0 0 0  0.05 0 0  0.1 0 0  0.15 0 0  0.2 0 0  0.25 0 0  0.3 0 0  0.35 0 0  0.4 0 0  0.45 0 0  0.5 0 0  0.55 0 0  0.6 0 0  0.65 0 0  0.7 0 0  0.75 0 0  0.8 0 0  0.85 0 0  0.9 0 0  0.95 0 0  1 0 0  0 0.05 0  0.05 0.05 0  0.1 0.05 0  0.15 0.05 0  0.2 0.05 0  0.25 0.05 0  0.3 0.05 0  0.35 0.05 0  0.4 0.05 0  0.45 0.05 0  0.5 0.05 0  0.55 0.05 0  0.6 0.05 0  0.65 0.05 0  0.7 0.05 0  0.75 0.05 0  0.8 0.05 0  0.85 0.05 0  0.9 0.05 0  0.95 0.05 0  1 0.05 0  0 0.1 0  0.05 0.1 0  0.1 0.1 0  0.15 0.1 0  0.2 0.1 0  0.25 0.1 0  0.3 0.1 0  0.35 0.1 0  0.4 0.1 0  0.45 0.1 0  0.5 0.1 0  0.55 0.1 0  0.6 0.1 0  0.65 0.1 0  0.7 0.1 0  0.75 0.1 0  0.8 0.1 0  0.85 0.1 0  0.9 0.1 0  0.95 0.1 0  1 0.1 0  0 0.15 0  0.05 0.15 0  0.1 0.15 0  0.15 0.15 0  0.2 0.15 0  0.25 0.15 0  0.3 0.15 0  0.35 0.15 0  0.4 0.15 0  0.45 0.15 0  0.5 0.15 0  0.55 0.15 0  0.6 0.15 0  0.65 0.15 0  0.7 0.15 0  0.75 0.15 0  0.8 0.15 0  0.85 0.15 0  0.9 0.15 0  0.95 0.15 0  1 0.15 0  0 0.2 0  0.05 0.2 0  0.1 0.2 0  0.15 0.2 0  0.2 0.2 0  0.25 0.2 0  0.3 0.2 0  0.35 0.2 0  0.4 0.2 0  0.45 0.2 0  0.5 0.2 0  0.55 0.2 0  0.6 0.2 0  0.65 0.2 0  0.7 0.2 0  0.75 0.2 0  0.8 0.2 0  0.85 0.2 0  0.9 0.2 0  0.95 0.2 0  1 0.2 0  0 0.25 0  0.05 0.25 0  0.1 0.25 0  0.15 0.25 0  0.2 0.25 0  0.25 0.25 0  0.3 0.25 0  0.35 0.25 0  0.4 0.25 0  0.45 0.25 0  0.5 0.25 0  0.55 0.25 0  0.6 0.25 0  0.65 0.25 0  0.7 0.25 0  0.75 0.25 0  0.8 0.25 0  0.85 0.25 0  0.9 0.25 0  0.95 0.25 0  1 0.25 0  0 0.3 0  0.05 0.3 0  0.1 0.3 0  0.15 0.3 0  0.2 0.3 0  0.25 0.3 0  0.3 0.3 0  0.35 0.3 0  0.4 0.3 0  0.45 0.3 0  0.5 0.3 0  0.55 0.3 0  0.6 0.3 0  0.65 0.3 0  0.7 0.3 0  0.75 0.3 0  0.8 0.3 0  0.85 0.3 0  0.9 0.3 0  0.95 0.3 0  1 0.3 0  0 0.35 0  0.05 0.35 0  0.1 0.35 0  0.15 0.35 0  0.2 0.35 0  0.25 0.35 0  0.3 0.35 0  0.35 0.35 0  0.4 0.35 0  0.45 0.35 0  0.5 0.35 0  0.55 0.35 0  0.6 0.35 0  0.65 0.35 0  0.7 0.35 0  0.75 0.35 0  0.8 0.35 0  0.85 0.35 0  0.9 0.35 0  0.95 0.35 0  1 0.35 0  0 0.4 0  0.05 0.4 0  0.1 0.4 0  0.15 0.4 0  0.2 0.4 0  0.25 0.4 0  0.3 0.4 0  0.35 0.4 0  0.4 0.4 0  0.45 0.4 0  0.5 0.4 0  0.55 0.4 0  0.6 0.4 0  0.65 0.4 0  0.7 0.4 0  0.75 0.4 0  0.8 0.4 0  0.85 0.4 0  0.9 0.4 0  0.95 0.4 0  1 0.4 0  0 0.45 0  0.05 0.45 0  0.1 0.45 0  0.15 0.45 0  0.2 0.45 0  0.25 0.45 0  0.3 0.45 0  0.35 0.45 0  0.4 0.45 0  0.45 0.45 0  0.5 0.45 0  0.55 0.45 0  0.6 0.45 0  0.65 0.45 0  0.7 0.45 0  0.75 0.45 0  0.8 0.45 0  0.85 0.45 0  0.9 0.45 0  0.95 0.45 0  1 0.45 0  0 0.5 0  0.05 0.5 0  0.1 0.5 0  0.15 0.5 0  0.2 0.5 0  0.25 0.5 0  0.3 0.5 0  0.35 0.5 0  0.4 0.5 0  0.45 0.5 0  0.5 0.5 0  0.55 0.5 0  0.6 0.5 0  0.65 0.5 0  0.7 0.5 0  0.75 0.5 0  0.8 0.5 0  0.85 0.5 0  0.9 0.5 0  0.95 0.5 0  1 0.5 0  0 0.55 0  0.05 0.55 0  0.1 0.55 0  0.15 0.55 0  0.2 0.55 0  0.25 0.55 0  0.3 0.55 0  0.35 0.55 0  0.4 0.55 0  0.45 0.55 0  0.5 0.55 0  0.55 0.55 0  0.6 0.55 0  0.65 0.55 0  0.7 0.55 0  0.75 0.55 0  0.8 0.55 0  0.85 0.55 0  0.9 0.55 0  0.95 0.55 0  1 0.55 0  0 0.6 0  0.05 0.6 0  0.1 0.6 0  0.15 0.6 0  0.2 0.6 0  0.25 0.6 0  0.3 0.6 0  0.35 0.6 0  0.4 0.6 0  0.45 0.6 0  0.5 0.6 0  0.55 0.6 0  0.6 0.6 0  0.65 0.6 0  0.7 0.6 0  0.75 0.6 0  0.8 0.6 0  0.85 0.6 0  0.9 0.6 0  0.95 0.6 0  1 0.6 0  0 0.65 0  0.05 0.65 0  0.1 0.65 0  0.15 0.65 0  0.2 0.65 0  0.25 0.65 0  0.3 0.65 0  0.35 0.65 0  0.4 0.65 0  0.45 0.65 0  0.5 0.65 0  0.55 0.65 0  0.6 0.65 0  0.65 0.65 0  0.7 0.65 0  0.75 0.65 0  0.8 0.65 0  0.85 0.65 0  0.9 0.65 0  0.95 0.65 0  1 0.65 0  0 0.7 0  0.05 0.7 0  0.1 0.7 0  0.15 0.7 0  0.2 0.7 0  0.25 0.7 0  0.3 0.7 0  0.35 0.7 0  0.4 0.7 0  0.45 0.7 0  0.5 0.7 0  0.55 0.7 0  0.6 0.7 0  0.65 0.7 0  0.7 0.7 0  0.75 0.7 0  0.8 0.7 0  0.85 0.7 0  0.9 0.7 0  0.95 0.7 0  1 0.7 0  0 0.75 0  0.05 0.75 0  0.1 0.75 0  0.15 0.75 0  0.2 0.75 0  0.25 0.75 0  0.3 0.75 0  0.35 0.75 0  0.4 0.75 0  0.45 0.75 0  0.5 0.75 0  0.55 0.75 0  0.6 0.75 0  0.65 0.75 0  0.7 0.75 0  0.75 0.75 0  0.8 0.75 0  0.85 0.75 0  0.9 0.75 0  0.95 0.75 0  1 0.75 0  0 0.8 0  0.05 0.8 0  0.1 0.8 0  0.15 0.8 0  0.2 0.8 0  0.25 0.8 0  0.3 0.8 0  0.35 0.8 0  0.4 0.8 0  0.45 0.8 0  0.5 0.8 0  0.55 0.8 0  0.6 0.8 0  0.65 0.8 0  0.7 0.8 0  0.75 0.8 0  0.8 0.8 0  0.85 0.8 0  0.9 0.8 0  0.95 0.8 0  1 0.8 0  0 0.85 0  0.05 0.85 0  0.1 0.85 0  0.15 0.85 0  0.2 0.85 0  0.25 0.85 0  0.3 0.85 0  0.35 0.85 0  0.4 0.85 0  0.45 0.85 0  0.5 0.85 0  0.55 0.85 0  0.6 0.85 0  0.65 0.85 0  0.7 0.85 0  0.75 0.85 0  0.8 0.85 0  0.85 0.85 0  0.9 0.85 0  0.95 0.85 0  1 0.85 0  0 0.9 0  0.05 0.9 0  0.1 0.9 0  0.15 0.9 0  0.2 0.9 0  0.25 0.9 0  0.3 0.9 0  0.35 0.9 0  0.4 0.9 0  0.45 0.9 0  0.5 0.9 0  0.55 0.9 0  0.6 0.9 0  0.65 0.9 0  0.7 0.9 0  0.75 0.9 0  0.8 0.9 0  0.85 0.9 0  0.9 0.9 0  0.95 0.9 0  1 0.9 0  0 0.95 0  0.05 0.95 0  0.1 0.95 0  0.15 0.95 0  0.2 0.95 0  0.25 0.95 0  0.3 0.95 0  0.35 0.95 0  0.4 0.95 0  0.45 0.95 0  0.5 0.95 0  0.55 0.95 0  0.6 0.95 0  0.65 0.95 0  0.7 0.95 0  0.75 0.95 0  0.8 0.95 0  0.85 0.95 0  0.9 0.95 0  0.95 0.95 0  1 0.95 0  0 1 0  0.05 1 0  0.1 1 0  0.15 1 0  0.2 1 0  0.25 1 0  0.3 1 0  0.35 1 0  0.4 1 0  0.45 1 0  0.5 1 0  0.55 1 0  0.6 1 0  0.65 1 0  0.7 1 0  0.75 1 0  0.8 1 0  0.85 1 0  0.9 1 0  0.95 1 0  1 1 0  </DataArray>
</Points>
<Cells>
[...]
<PointData  Vectors="f_137"> 
<DataArray  type="Float64"  Name="f_137"  NumberOfComponents="3" format="ascii">0.0000000000000000e+00 0.0000000000000000e+00 0.0000000000000000e+00  0.0000000000000000e+00 0.0000000000000000e+00 0.0000000000000000e+00  0.0000000000000000e+00 0.0000000000000000e+00 0.0000000000000000e+00  0.0000000000000000e+00 0.0000000000000000e+00 0.0000000000000000e+00  0.0000000000000000e+00 0.0000000000000000e+00 0.0000000000000000e+00  0.0000000000000000e+00 0.0000000000000000e+00 0.0000000000000000e+00  0.0000000000000000e+00 0.0000000000000000e+00 0.0000000000000000e+00  0.0000000000000000e+00 0.0000000000000000e+00 0.0000000000000000e+00  0.0000000000000000e+00 0.0000000000000000e+00 0.0000000000000000e+00  0.0000000000000000e+00 0.0000000000000000e+00 0.0000000000000000e+00  0.0000000000000000e+00 0.0000000000000000e+00 0.0000000000000000e+00  0.0000000000000000e+00 0.0000000000000000e+00 0.0000000000000000e+00  0.0000000000000000e+00 0.0000000000000000e+00 0.0000000000000000e+00  0.0000000000000000e+00 0.0000000000000000e+00 0.0000000000000000e+00  0.0000000000000000e+00 0.0000000000000000e+00 0.0000000000000000e+00  0.0000000000000000e+00 0.0000000000000000e+00 0.0000000000000000e+00  0.0000000000000000e+00 0.0000000000000000e+00 0.0000000000000000e+00  0.0000000000000000e+00 0.0000000000000000e+00 0.0000000000000000e+00  0.0000000000000000e+00 0.0000000000000000e+00 0.0000000000000000e+00  0.0000000000000000e+00 0.0000000000000000e+00 0.0000000000000000e+00  0.0000000000000000e+00 0.0000000000000000e+00 0.0000000000000000e+00  0.0000000000000000e+00 0.0000000000000000e+00 0.0000000000000000e+00  -8.1505284993832776e-04 8.0742693390675703e-04 0.0000000000000000e+00  -2.3067421077758894e-03 9.4497868900071268e-04 0.0000000000000000e+00  -3.8289321296747733e-03 9.0181338936288276e-04 0.0000000000000000e+00  -5.2553336720923280e-03 8.3537993848072339e-04 0.0000000000000000e+00  -6.5538114536366088e-03 7.4839852649734924e-04 0.0000000000000000e+00  -7.6902551892254990e-03 6.4225613537789825e-04 0.0000000000000000e+00  -8.6350764202198557e-03 5.1860554453590020e-04 0.0000000000000000e+00  -9.3619096399777217e-03 3.7939485909923199e-04 0.0000000000000000e+00  -9.8482424382512566e-03 2.2695144568145014e-04 0.0000000000000000e+00  -1.0075991526529247e-02 6.4051178451227076e-05 0.0000000000000000e+00  -1.0032204186593790e-02 -1.0594892257427157e-04 0.0000000000000000e+00  -9.7099649186306990e-03 -2.7897696158372183e-04 0.0000000000000000e+00  -9.1094625565966633e-03 -4.5015668215792098e-04 0.0000000000000000e+00  -8.2391646853439762e-03 -6.1383153427406088e-04 0.0000000000000000e+00  -7.1167450067377881e-03 -7.6372675729492181e-04 0.0000000000000000e+00  -5.7699010209729300e-03 -8.9331356144221994e-04 0.0000000000000000e+00  -4.2361286106078529e-03 -9.9552039697479587e-04 0.0000000000000000e+00  -2.5701664763070542e-03 -1.0519419064974490e-03 0.0000000000000000e+00  -9.0106342717775293e-04 -9.0128772295946082e-04 0.0000000000000000e+00  0.0000000000000000e+00 0.0000000000000000e+00 0.0000000000000000e+00  0.0000000000000000e+00 0.0000000000000000e+00 0.0000000000000000e+00  -1.0068143329016034e-03 2.3349316103754405e-03 0.0000000000000000e+00  -2.7871599711160253e-03 2.6703051089375205e-03 0.0000000000000000e+00  -4.5808116684540739e-03 2.5586163397847586e-03 0.0000000000000000e+00  -6.2655362889400146e-03 2.3660926285021451e-03 0.0000000000000000e+00  -7.7953916932386146e-03 2.1141442116987710e-03 0.0000000000000000e+00  -9.1311182457428676e-03 1.8083243197553811e-03 0.0000000000000000e+00  -1.0238428055564719e-02 1.4539791435614880e-03 0.0000000000000000e+00  -1.1087215966149573e-02 1.0572886971232690e-03 0.0000000000000000e+00  -1.1652179353565984e-02 6.2524736135977381e-04 0.0000000000000000e+00  -1.1913196526111855e-02 1.6588681653821304e-04 0.0000000000000000e+00  -1.1855971469710439e-02 -3.1137852368852246e-04 0.0000000000000000e+00  -1.1472948456017129e-02 -7.9537750707800675e-04 0.0000000000000000e+00  -1.0764490772516051e-02 -1.2729080301865845e-03 0.0000000000000000e+00  -9.7402850998322462e-03 -1.7287218299882020e-03 0.0000000000000000e+00  -8.4204964949156844e-03 -2.1459246066708789e-03 0.0000000000000000e+00  -6.8372921159417207e-03 -2.5067453569573173e-03 0.0000000000000000e+00  -5.0343599786591428e-03 -2.7919183827452379e-03 0.0000000000000000e+00  -3.0738810850383554e-03 -2.9572360077357246e-03 0.0000000000000000e+00  -1.1085365570786814e-03 -2.6086436423578951e-03 0.0000000000000000e+00  0.0000000000000000e+00 0.0000000000000000e+00 0.0000000000000000e+00  0.0000000000000000e+00 0.0000000000000000e+00 0.0000000000000000e+00  -1.0565696932761410e-03 4.0138300250500778e-03 0.0000000000000000e+00  -2.9409838719027786e-03 4.5471760693820687e-03 0.0000000000000000e+00  -4.8357886982183925e-03 4.3554709038821724e-03 0.0000000000000000e+00  -6.6164163008891478e-03 4.0255659421495693e-03 0.0000000000000000e+00  -8.2341466493505468e-03 3.5942279266732080e-03 0.0000000000000000e+00  -9.6490443224830236e-03 3.0716469830002419e-03 0.0000000000000000e+00  -1.0825442029884945e-02 2.4676564154300696e-03 0.0000000000000000e+00  -1.1732208691534232e-02 1.7930279586047186e-03 0.0000000000000000e+00  -1.2342844449974461e-02 1.0595979280927121e-03 0.0000000000000000e+00  -1.2635682705507545e-02 2.8068369295601196e-04 0.0000000000000000e+00  -1.2594403875567503e-02 -5.2827707809316698e-04 0.0000000000000000e+00  -1.2208961632661688e-02 -1.3489815573111412e-03 0.0000000000000000e+00  -1.1476979620601162e-02 -2.1596404767455753e-03 0.0000000000000000e+00  -1.0405612275845823e-02 -2.9347759109234826e-03 0.0000000000000000e+00  -9.0133457057644216e-03 -3.6457278213649566e-03 0.0000000000000000e+00  -7.3322821231495486e-03 -4.2618927051778837e-03 0.0000000000000000e+00  -5.4077781172669794e-03 -4.7498810143075899e-03 0.0000000000000000e+00  -3.3065133342072613e-03 -5.0383834338674077e-03 0.0000000000000000e+00  -1.1936806973515876e-03 -4.4735679439675772e-03 0.0000000000000000e+00  0.0000000000000000e+00 0.0000000000000000e+00 0.0000000000000000e+00  0.0000000000000000e+00 0.0000000000000000e+00 0.0000000000000000e+00  -1.1301589398359443e-03 5.7905795490071988e-03 0.0000000000000000e+00  -3.1478508404074617e-03 6.5408109414666115e-03 0.0000000000000000e+00  -5.1775870914621226e-03 6.2649027713437442e-03 0.0000000000000000e+00  -7.0852098542953466e-03 5.7900248780731415e-03 0.0000000000000000e+00  -8.8196792744822117e-03 5.1700277968875904e-03 0.0000000000000000e+00  -1.0339754806838570e-02 4.4203240421474936e-03 0.0000000000000000e+00  -1.1608628074195774e-02 3.5553342554341919e-03 0.0000000000000000e+00  -1.2594215027963970e-02 2.5903119874131643e-03 0.0000000000000000e+00  -1.3268716716086593e-02 1.5415543844478697e-03 0.0000000000000000e+00  -1.3608490264058450e-02 4.2701796607246077e-04 0.0000000000000000e+00  -1.3594271618945939e-02 -7.3260356102391577e-04 0.0000000000000000e+00  -1.3212051047616262e-02 -1.9125318447313232e-03 0.0000000000000000e+00  -1.2454755886926338e-02 -3.0826327197471539e-03 0.0000000000000000e+00  -1.1324832113832919e-02 -4.2067070518085796e-03 0.0000000000000000e+00  -9.8370889905466403e-03 -5.2428843891348647e-03 0.0000000000000000e+00  -8.0223997719013479e-03 -6.1453188766268478e-03 0.0000000000000000e+00  -5.9281443484983749e-03 -6.8636273975522149e-03 0.0000000000000000e+00  -3.6285487219192298e-03 -7.2947094812860248e-03 0.0000000000000000e+00  -1.3096342641733731e-03 -6.4987764026328554e-03 0.0000000000000000e+00  0.0000000000000000e+00 0.0000000000000000e+00 0.0000000000000000e+00  0.0000000000000000e+00 0.0000000000000000e+00 0.0000000000000000e+00  -1.2321990055483977e-03 7.7124866496406591e-03 0.0000000000000000e+00  -3.4324631444271328e-03 8.6963404974744578e-03 0.0000000000000000e+00  -5.6456182556474735e-03 8.3285897558955675e-03 0.0000000000000000e+00  -7.7251205703217744e-03 7.6974150362644012e-03 0.0000000000000000e+00  -9.6169892851697813e-03 6.8755660709255437e-03 0.0000000000000000e+00  -1.1278221452649013e-02 5.8843181574122693e-03 0.0000000000000000e+00  -1.2671094334183763e-02 4.7430300308090641e-03 0.0000000000000000e+00  -1.3762858896955429e-02 3.4713731556380331e-03 0.0000000000000000e+00  -1.4524639054218717e-02 2.0894823946016935e-03 0.0000000000000000e+00  -1.4930636070334485e-02 6.1884547634687940e-04 0.0000000000000000e+00  -1.4957797965688361e-02 -9.1598999274299011e-04 0.0000000000000000e+00  -1.4586454970878775e-02 -2.4851221000304381e-03 0.0000000000000000e+00  -1.3802267188092632e-02 -4.0508742004269427e-03 0.0000000000000000e+00  -1.2599796395184564e-02 -5.5660011958675324e-03 0.0000000000000000e+00  -1.0987014383285856e-02 -6.9734825004302680e-03 0.0000000000000000e+00  -8.9914423391147455e-03 -8.2085427123940406e-03 0.0000000000000000e+00  -6.6623947192224683e-03 -9.1985244636275578e-03 0.0000000000000000e+00  -4.0849478576220899e-03 -9.8004795413774420e-03 0.0000000000000000e+00  -1.4749227202043790e-03 -8.7512697097883330e-03 0.0000000000000000e+00  0.0000000000000000e+00 0.0000000000000000e+00 0.0000000000000000e+00  0.0000000000000000e+00 0.0000000000000000e+00 0.0000000000000000e+00  -1.3655486551170052e-03 9.8265633113525947e-03 0.0000000000000000e+00  -3.8035600137288021e-03 1.1065714893963036e-02 0.0000000000000000e+00  -6.2535072472359532e-03 1.0595905579661797e-02 0.0000000000000000e+00  -8.5535098364422427e-03 9.7927293644748687e-03 0.0000000000000000e+00  -1.0645793078190115e-02 8.7507582047400469e-03 0.0000000000000000e+00  -1.2485636885664427e-02 7.4985931735533345e-03 0.0000000000000000e+00  -1.4035091155206120e-02 6.0613310981936525e-03 0.0000000000000000e+00  -1.5261723771599149e-02 4.4630472998975993e-03 0.0000000000000000e+00  -1.6136492480550615e-02 2.7268184069759865e-03 0.0000000000000000e+00  -1.6631838936376975e-02 8.7592306900648317e-04 0.0000000000000000e+00  -1.6720361079305635e-02 -1.0636094260919988e-03 0.0000000000000000e+00  -1.6374797657519466e-02 -3.0592907056103185e-03 0.0000000000000000e+00  -1.5570019756894728e-02 -5.0678466403014906e-03 0.0000000000000000e+00  -1.4287796605010733e-02 -7.0313494047497312e-03 0.0000000000000000e+00  -1.2523772439219085e-02 -8.8753960947077579e-03 0.0000000000000000e+00  -1.0297669088763764e-02 -1.0510843321426811e-02 0.0000000000000000e+00  -7.6591266455649605e-03 -1.1834263376914907e-02 0.0000000000000000e+00  -4.7074430627823856e-03 -1.2650203025111694e-02 0.0000000000000000e+00  -1.7012349313131111e-03 -1.1319662050642599e-02 0.0000000000000000e+00  0.0000000000000000e+00 0.0000000000000000e+00 0.0000000000000000e+00  0.0000000000000000e+00 0.0000000000000000e+00 0.0000000000000000e+00  -1.5344756862640644e-03 1.2187269254655428e-02 0.0000000000000000e+00  -4.2722852758386208e-03 1.3707598929115883e-02 0.0000000000000000e+00  -7.0181816454958947e-03 1.3120349376174545e-02 0.0000000000000000e+00  -9.5909547616425620e-03 1.2122972313129145e-02 0.0000000000000000e+00  -1.1928264350952051e-02 1.0836046485677941e-02 0.0000000000000000e+00  -1.3984309391210880e-02 9.2978082678068247e-03 0.0000000000000000e+00  -1.5722456523968437e-02 7.5404688698772933e-03 0.0000000000000000e+00  -1.7112649433660785e-02 5.5926821457122902e-03 0.0000000000000000e+00  -1.8127722226644865e-02 3.4792719540388422e-03 0.0000000000000000e+00  -1.8739791480035416e-02 1.2227229282175565e-03 0.0000000000000000e+00  -1.8917229261796703e-02 -1.1532288582752127e-03 0.0000000000000000e+00  -1.8623273223790524e-02 -3.6179610335865253e-03 0.0000000000000000e+00  -1.7817416575216068e-02 -6.1267686586023665e-03 0.0000000000000000e+00  -1.6461178578144504e-02 -8.6132689267699632e-03 0.0000000000000000e+00  -1.4528386086157906e-02 -1.0983787733441969e-02 0.0000000000000000e+00  -1.2022088172582785e-02 -1.3117139425853288e-02 0.0000000000000000e+00  -8.9875200631887170e-03 -1.4865660005678226e-02 0.0000000000000000e+00  -5.5419244070902540e-03 -1.5961331924565322e-02 0.0000000000000000e+00  -2.0055510333058606e-03 -1.4315157001938240e-02 0.0000000000000000e+00  0.0000000000000000e+00 0.0000000000000000e+00 0.0000000000000000e+00  0.0000000000000000e+00 0.0000000000000000e+00 0.0000000000000000e+00  -1.7453620702892710e-03 1.4857260041235663e-02 0.0000000000000000e+00  -4.8551267138060997e-03 1.6688106812099219e-02 0.0000000000000000e+00  -7.9637800779677574e-03 1.5960740266567974e-02 0.0000000000000000e+00  -1.0865781588515661e-02 1.4737886615293429e-02 0.0000000000000000e+00  -1.3493644747419384e-02 1.3172290279979477e-02 0.0000000000000000e+00  -1.5801945786475192e-02 1.1315592329490955e-02 0.0000000000000000e+00  -1.7758246024997561e-02 9.2094329601019684e-03 0.0000000000000000e+00  -1.9338528578248269e-02 6.8875604108772628e-03 0.0000000000000000e+00  -2.0521274165899276e-02 4.3750631176581699e-03 0.0000000000000000e+00  -2.1281379142922784e-02 1.6900899407492345e-03 0.0000000000000000e+00  -2.1584580954794669e-02 -1.1515236678802400e-03 0.0000000000000000e+00  -2.1383600999118207e-02 -4.1285514026439133e-03 0.0000000000000000e+00  -2.0617125049369359e-02 -7.2031505332978765e-03 0.0000000000000000e+00  -1.9215375064840168e-02 -1.0306443942424788e-02 0.0000000000000000e+00  -1.7114301559339157e-02 -1.3325223034920603e-02 0.0000000000000000e+00  -1.4283387374878609e-02 -1.6096526157936480e-02 0.0000000000000000e+00  -1.0752186082549867e-02 -1.8407964879776743e-02 0.0000000000000000e+00  -6.6588304215752792e-03 -1.9885984089254453e-02 0.0000000000000000e+00  -2.4139945569169063e-03 -1.7883964986964252e-02 0.0000000000000000e+00  0.0000000000000000e+00 0.0000000000000000e+00 0.0000000000000000e+00  0.0000000000000000e+00 0.0000000000000000e+00 0.0000000000000000e+00  -2.0080082427192032e-03 1.7911651874514798e-02 0.0000000000000000e+00  -5.5766213063921342e-03 2.0084358057307176e-02 0.0000000000000000e+00  -9.1252160395850577e-03 1.9182675354346264e-02 0.0000000000000000e+00  -1.2417593692255372e-02 1.7689388205230042e-02 0.0000000000000000e+00  -1.5380902959418363e-02 1.5798689512098320e-02 0.0000000000000000e+00  -1.7972972302911359e-02 1.3581542253572677e-02 0.0000000000000000e+00  -2.0170460220346385e-02 1.1092631114936663e-02 0.0000000000000000e+00  -2.1961336806813361e-02 8.3718309470742543e-03 0.0000000000000000e+00  -2.3335849242832968e-02 5.4428948642911952e-03 0.0000000000000000e+00  -2.4277325609467305e-02 2.3151883355500978e-03 0.0000000000000000e+00  -2.4753584650325736e-02 -1.0115144988356341e-03 0.0000000000000000e+00  -2.4707998957232906e-02 -4.5372893709213187e-03 0.0000000000000000e+00  -2.4052670341520224e-02 -8.2444880106252137e-03 0.0000000000000000e+00  -2.2672299663090156e-02 -1.2074133751046290e-02 0.0000000000000000e+00  -2.0440004121759371e-02 -1.5901858992015877e-02 0.0000000000000000e+00  -1.7259368947739807e-02 -1.9516314069042331e-02 0.0000000000000000e+00  -1.3116257012074917e-02 -2.2607118391849600e-02 0.0000000000000000e+00  -8.1684954124340986e-03 -2.4632542932775212e-02 0.0000000000000000e+00  -2.9663160170094781e-03 -2.2226206091376158e-02 0.0000000000000000e+00  0.0000000000000000e+00 0.0000000000000000e+00 0.0000000000000000e+00  0.0000000000000000e+00 0.0000000000000000e+00 0.0000000000000000e+00  -2.3378189141695272e-03 2.1444495880807022e-02 0.0000000000000000e+00  -6.4741712412211844e-03 2.3989096538646566e-02 0.0000000000000000e+00  -1.0554138679061525e-02 2.2860258390093972e-02 0.0000000000000000e+00  -1.4302794670481230e-02 2.1030532354600145e-02 0.0000000000000000e+00  -1.7642740918390840e-02 1.8749603311392266e-02 0.0000000000000000e+00  -2.0540462725670408e-02 1.6116738103954514e-02 0.0000000000000000e+00  -2.2989697957059858e-02 1.3204893054838003e-02 0.0000000000000000e+00  -2.4999347319070751e-02 1.0061724267703173e-02 0.0000000000000000e+00  -2.6580433448467458e-02 6.7080631192344671e-03 0.0000000000000000e+00  -2.7734449959370029e-02 3.1389541802563895e-03 0.0000000000000000e+00  -2.8440274216160646e-02 -6.7158660521103445e-04 0.0000000000000000e+00  -2.8635155176611787e-02 -4.7570849212962693e-03 0.0000000000000000e+00  -2.8206877862490667e-02 -9.1410921159146199e-03 0.0000000000000000e+00  -2.6983241577220523e-02 -1.3814499910376019e-02 0.0000000000000000e+00  -2.4732400532213688e-02 -1.8675408490756388e-02 0.0000000000000000e+00  -2.1224577360103740e-02 -2.3450363839552072e-02 0.0000000000000000e+00  -1.6338424258837313e-02 -2.7660719992961824e-02 0.0000000000000000e+00  -1.0246271808733470e-02 -3.0489334707615043e-02 0.0000000000000000e+00  -3.7259085440178668e-03 -2.7618844890852604e-02 0.0000000000000000e+00  0.0000000000000000e+00 0.0000000000000000e+00 0.0000000000000000e+00  0.0000000000000000e+00 0.0000000000000000e+00 0.0000000000000000e+00  -2.7598580381571003e-03 2.5579411794018483e-02 0.0000000000000000e+00  -7.6064970468572891e-03 2.8517799637501787e-02 0.0000000000000000e+00  -1.2328836236241538e-02 2.7078074461532122e-02 0.0000000000000000e+00  -1.6603321741265220e-02 2.4812880940825274e-02 0.0000000000000000e+00  -2.0351614191167100e-02 2.2048820737107292e-02 0.0000000000000000e+00  -2.3558994748052540e-02 1.8926483945679431e-02 0.0000000000000000e+00  -2.6248956176696529e-02 1.5543754421379452e-02 0.0000000000000000e+00  -2.8463883586144850e-02 1.1957834867342332e-02 0.0000000000000000e+00  -3.0248227156644575e-02 8.1847092388408135e-03 0.0000000000000000e+00  -3.1635680500957816e-02 4.2004894536137637e-03 0.0000000000000000e+00  -3.2625230291544287e-02 -5.1215178381209472e-05 0.0000000000000000e+00  -3.3167152581544727e-02 -4.6598831357867552e-03 0.0000000000000000e+00  -3.3158178497257211e-02 -9.7534714405630527e-03 0.0000000000000000e+00  -3.2331749425580973e-02 -1.5426413627848476e-02 0.0000000000000000e+00  -3.0295327294266393e-02 -2.1578461133588363e-02 0.0000000000000000e+00  -2.6586992582048184e-02 -2.7893553309956798e-02 0.0000000000000000e+00  -2.0847109817034953e-02 -3.3731485614670188e-02 0.0000000000000000e+00  -1.3202668710696348e-02 -3.7845675109086478e-02 0.0000000000000000e+00  -4.8117284837728312e-03 -3.4505120126001224e-02 0.0000000000000000e+00  0.0000000000000000e+00 0.0000000000000000e+00 0.0000000000000000e+00  0.0000000000000000e+00 0.0000000000000000e+00 0.0000000000000000e+00  -3.3165773156816811e-03 3.0487659210975078e-02 0.0000000000000000e+00  -9.0687997239596828e-03 3.3819374453442796e-02 0.0000000000000000e+00  -1.4570872978174181e-02 3.1932655355290850e-02 0.0000000000000000e+00  -1.9440155129064166e-02 2.9080635735029205e-02 0.0000000000000000e+00  -2.3608115144928419e-02 2.5699760109793666e-02 0.0000000000000000e+00  -2.7098155156289931e-02 2.1989374458354305e-02 0.0000000000000000e+00  -2.9983377199685638e-02 1.8078650283567619e-02 0.0000000000000000e+00  -3.2356439220892430e-02 1.4034203879525940e-02 0.0000000000000000e+00  -3.4310928607762428e-02 9.8648573591526342e-03 0.0000000000000000e+00  -3.5923678734822592e-02 5.5277176335592100e-03 0.0000000000000000e+00  -3.7229406868619280e-02 9.2921815195924965e-04 0.0000000000000000e+00  -3.8267560564575837e-02 -4.1156072171819697e-03 0.0000000000000000e+00  -3.8914700990442697e-02 -9.8033917271755054e-03 0.0000000000000000e+00  -3.8780757267077894e-02 -1.6266663795913430e-02 0.0000000000000000e+00  -3.7502793196259786e-02 -2.3749020734357626e-02 0.0000000000000000e+00  -3.4080219169434392e-02 -3.2426965323430902e-02 0.0000000000000000e+00  -2.7494773455894378e-02 -4.1169371037003820e-02 0.0000000000000000e+00  -1.7584720121660517e-02 -4.7589286738649636e-02 0.0000000000000000e+00  -6.3771552252087456e-03 -4.3658590300121765e-02 0.0000000000000000e+00  0.0000000000000000e+00 0.0000000000000000e+00 0.0000000000000000e+00  0.0000000000000000e+00 0.0000000000000000e+00 0.0000000000000000e+00  -4.0833573575338022e-03 3.6419678275720284e-02 0.0000000000000000e+00  -1.1020712231146042e-02 4.0092255158297771e-02 0.0000000000000000e+00  -1.7473359416724454e-02 3.7531059879207955e-02 0.0000000000000000e+00  -2.2993468405046201e-02 3.3857749075651214e-02 0.0000000000000000e+00  -2.7551138252296468e-02 2.9668607008033546e-02 0.0000000000000000e+00  -3.1245235950741287e