<?xml version="1.0"?>
<VTKFile type="UnstructuredGrid"  version="0.1"  >
<UnstructuredGrid>
<Piece  NumberOfPoints="441" NumberOfCells="800">
<Points>
<DataArray  type="Float64"  NumberOfComponents="3"  format="ascii">0 0 0  0.05 0 0  0.1 0 0  0.15 0 0  0.2 0 0  0.25 0 0  0.3 0 0  0.35 0 0  0.4 0 0  0.45 0 0  0.5 0 0  0.55 0 0  0.6 0 0  0.65 0 0  0.7 0 0  0.75 0 0  0.8 0 0  0.85 0 0  0.9 0 0  0.95 0 0  1 0 0  0 0.05 0  0.05 0.05 0  0.1 0.05 0  0.15 0.05 0  0.2 0.05 0  0.25 0.05 0  0.3 0.05 0  0.35 0.05 0  0.4 0.05 0  0.45 0.05 0  0.5 0.05 0  0.55 0.05 0  0.6 0.05 0  0.65 0.05 0  0.7 0.05 0  0.75 0.05 0  0.8 0.05 0  0.85 0.05 0  0.9 0.05 0  0.95 0.05 0  1 0.05 0  0 0.1 0  0.05 0.1 0  0.1 0.1 0  0.15 0.1 0  0.2 0.1 0  0.25 0.1 0  0.3 0.1 0  0.35 0.1 0  0.4 0.1 0  0.45 0.1 0  0.5 0.1 0  0.55 0.1 0  0.6 0.1 0  0.65 0.1 0  0.7 0.1 0  0.75 0.1 0  0.8 0.1 0  0.85 0.1 0  0.9 0.1 0  0.95 0.1 0  1 0.1 0  0 0.15 0  0.05 0.15 0  0.1 0.15 0  0.15 0.15 0  0.2 0.15 0  0.25 0.15 0  0.3 0.15 0  0.35 0.15 0  0.4 0.15 0  0.45 0.15 0  0.5 0.15 0  0.55 0.15 0  0.6 0.15 0  0.65 0.15 0  0.7 0.15 0  0.75 0.15 0  0.8 0.15 0  0.85 0.15 0  0.9 0.15 0  0.95 0.15 0  1 0.15 0  0 0.2 0  0.05 0.2 0  0.1 0.2 0  0.15 0.2 0  0.2 0.2 0  0.25 0.2 0  0.3 0.2 0  0.35 0.2 0  0.4 0.2 0  0.45 0.2 0  0.5 0.2 0  0.55 0.2 0  0.6 0.2 0  0.65 0.2 0  0.7 0.2 0  0.75 0.2 0  0.8 0.2 0  0.85 0.2 0  0.9 0.2 0  0.95 0.2 0  1 0.2 0  0 0.25 0  0.05 0.25 0  0.1 0.25 0  0.15 0.25 0  0.2 0.25 0  0.25 0.25 0  0.3 0.25 0  0.35 0.25 0  0.4 0.25 0  0.45 0.25 0  0.5 0.25 0  0.55 0.25 0  0.6 0.25 0  0.65 0.25 0  0.7 0.25 0  0.75 0.25 0  0.8 0.25 0  0.85 0.25 0  0.9 0.25 0  0.95 0.25 0  1 0.25 0  0 0.3 0  0.05 0.3 0  0.1 0.3 0  0.15 0.3 0  0.2 0.3 0  0.25 0.3 0  0.3 0.3 0  0.35 0.3 0  0.4 0.3 0  0.45 0.3 0  0.5 0.3 0  0.55 0.3 0  0.6 0.3 0  0.65 0.3 0  0.7 0.3 0  0.75 0.3 0  0.8 0.3 0  0.85 0.3 0  0.9 0.3 0  0.95 0.3 0  1 0.3 0  0 0.35 0  0.05 0.35 0  0.1 0.35 0  0.15 0.35 0  0.2 0.35 0  0.25 0.35 0  0.3 0.35 0  0.35 0.35 0  0.4 0.35 0  0.45 0.35 0  0.5 0.35 0  0.55 0.35 0  0.6 0.35 0  0.65 0.35 0  0.7 0.35 0  0.75 0.35 0  0.8 0.35 0  0.85 0.35 0  0.9 0.35 0  0.95 0.35 0  1 0.35 0  0 0.4 0  0.05 0.4 0  0.1 0.4 0  0.15 0.4 0  0.2 0.4 0  0.25 0.4 0  0.3 0.4 0  0.35 0.4 0  0.4 0.4 0  0.45 0.4 0  0.5 0.4 0  0.55 0.4 0  0.6 0.4 0  0.65 0.4 0  0.7 0.4 0  0.75 0.4 0  0.8 0.4 0  0.85 0.4 0  0.9 0.4 0  0.95 0.4 0  1 0.4 0  0 0.45 0  0.05 0.45 0  0.1 0.45 0  0.15 0.45 0  0.2 0.45 0  0.25 0.45 0  0.3 0.45 0  0.35 0.45 0  0.4 0.45 0  0.45 0.45 0  0.5 0.45 0  0.55 0.45 0  0.6 0.45 0  0.65 0.45 0  0.7 0.45 0  0.75 0.45 0  0.8 0.45 0  0.85 0.45 0  0.9 0.45 0  0.95 0.45 0  1 0.45 0  0 0.5 0  0.05 0.5 0  0.1 0.5 0  0.15 0.5 0  0.2 0.5 0  0.25 0.5 0  0.3 0.5 0  0.35 0.5 0  0.4 0.5 0  0.45 0.5 0  0.5 0.5 0  0.55 0.5 0  0.6 0.5 0  0.65 0.5 0  0.7 0.5 0  0.75 0.5 0  0.8 0.5 0  0.85 0.5 0  0.9 0.5 0  0.95 0.5 0  1 0.5 0  0 0.55 0  0.05 0.55 0  0.1 0.55 0  0.15 0.55 0  0.2 0.55 0  0.25 0.55 0  0.3 0.55 0  0.35 0.55 0  0.4 0.55 0  0.45 0.55 0  0.5 0.55 0  0.55 0.55 0  0.6 0.55 0  0.65 0.55 0  0.7 0.55 0  0.75 0.55 0  0.8 0.55 0  0.85 0.55 0  0.9 0.55 0  0.95 0.55 0  1 0.55 0  0 0.6 0  0.05 0.6 0  0.1 0.6 0  0.15 0.6 0  0.2 0.6 0  0.25 0.6 0  0.3 0.6 0  0.35 0.6 0  0.4 0.6 0  0.45 0.6 0  0.5 0.6 0  0.55 0.6 0  0.6 0.6 0  0.65 0.6 0  0.7 0.6 0  0.75 0.6 0  0.8 0.6 0  0.85 0.6 0  0.9 0.6 0  0.95 0.6 0  1 0.6 0  0 0.65 0  0.05 0.65 0  0.1 0.65 0  0.15 0.65 0  0.2 0.65 0  0.25 0.65 0  0.3 0.65 0  0.35 0.65 0  0.4 0.65 0  0.45 0.65 0  0.5 0.65 0  0.55 0.65 0  0.6 0.65 0  0.65 0.65 0  0.7 0.65 0  0.75 0.65 0  0.8 0.65 0  0.85 0.65 0  0.9 0.65 0  0.95 0.65 0  1 0.65 0  0 0.7 0  0.05 0.7 0  0.1 0.7 0  0.15 0.7 0  0.2 0.7 0  0.25 0.7 0  0.3 0.7 0  0.35 0.7 0  0.4 0.7 0  0.45 0.7 0  0.5 0.7 0  0.55 0.7 0  0.6 0.7 0  0.65 0.7 0  0.7 0.7 0  0.75 0.7 0  0.8 0.7 0  0.85 0.7 0  0.9 0.7 0  0.95 0.7 0  1 0.7 0  0 0.75 0  0.05 0.75 0  0.1 0.75 0  0.15 0.75 0  0.2 0.75 0  0.25 0.75 0  0.3 0.75 0  0.35 0.75 0  0.4 0.75 0  0.45 0.75 0  0.5 0.75 0  0.55 0.75 0  0.6 0.75 0  0.65 0.75 0  0.7 0.75 0  0.75 0.75 0  0.8 0.75 0  0.85 0.75 0  0.9 0.75 0  0.95 0.75 0  1 0.75 0  0 0.8 0  0.05 0.8 0  0.1 0.8 0  0.15 0.8 0  0.2 0.8 0  0.25 0.8 0  0.3 0.8 0  0.35 0.8 0  0.4 0.8 0  0.45 0.8 0  0.5 0.8 0  0.55 0.8 0  0.6 0.8 0  0.65 0.8 0  0.7 0.8 0  0.75 0.8 0  0.8 0.8 0  0.85 0.8 0  0.9 0.8 0  0.95 0.8 0  1 0.8 0  0 0.85 0  0.05 0.85 0  0.1 0.85 0  0.15 0.85 0  0.2 0.85 0  0.25 0.85 0  0.3 0.85 0  0.35 0.85 0  0.4 0.85 0  0.45 0.85 0  0.5 0.85 0  0.55 0.85 0  0.6 0.85 0  0.65 0.85 0  0.7 0.85 0  0.75 0.85 0  0.8 0.85 0  0.85 0.85 0  0.9 0.85 0  0.95 0.85 0  1 0.85 0  0 0.9 0  0.05 0.9 0  0.1 0.9 0  0.15 0.9 0  0.2 0.9 0  0.25 0.9 0  0.3 0.9 0  0.35 0.9 0  0.4 0.9 0  0.45 0.9 0  0.5 0.9 0  0.55 0.9 0  0.6 0.9 0  0.65 0.9 0  0.7 0.9 0  0.75 0.9 0  0.8 0.9 0  0.85 0.9 0  0.9 0.9 0  0.95 0.9 0  1 0.9 0  0 0.95 0  0.05 0.95 0  0.1 0.95 0  0.15 0.95 0  0.2 0.95 0  0.25 0.95 0  0.3 0.95 0  0.35 0.95 0  0.4 0.95 0  0.45 0.95 0  0.5 0.95 0  0.55 0.95 0  0.6 0.95 0  0.65 0.95 0  0.7 0.95 0  0.75 0.95 0  0.8 0.95 0  0.85 0.95 0  0.9 0.95 0  0.95 0.95 0  1 0.95 0  0 1 0  0.05 1 0  0.1 1 0  0.15 1 0  0.2 1 0  0.25 1 0  0.3 1 0  0.35 1 0  0.4 1 0  0.45 1 0  0.5 1 0  0.55 1 0  0.6 1 0  0.65 1 0  0.7 1 0  0.75 1 0  0.8 1 0  0.85 1 0  0.9 1 0  0.95 1 0  1 1 0  </DataArray>
</Points>
<Cells>
[...]
<PointData  Vectors="f_137"> 
<DataArray  type="Float64"  Name="f_137"  NumberOfComponents="3" format="ascii">0.0000000000000000e+00 0.0000000000000000e+00 0.0000000000000000e+00  0.0000000000000000e+00 0.0000000000000000e+00 0.0000000000000000e+00  0.0000000000000000e+00 0.0000000000000000e+00 0.0000000000000000e+00  0.0000000000000000e+00 0.0000000000000000e+00 0.0000000000000000e+00  0.0000000000000000e+00 0.0000000000000000e+00 0.0000000000000000e+00  0.0000000000000000e+00 0.0000000000000000e+00 0.0000000000000000e+00  0.0000000000000000e+00 0.0000000000000000e+00 0.0000000000000000e+00  0.0000000000000000e+00 0.0000000000000000e+00 0.0000000000000000e+00  0.0000000000000000e+00 0.0000000000000000e+00 0.0000000000000000e+00  0.0000000000000000e+00 0.0000000000000000e+00 0.0000000000000000e+00  0.0000000000000000e+00 0.0000000000000000e+00 0.0000000000000000e+00  0.0000000000000000e+00 0.0000000000000000e+00 0.0000000000000000e+00  0.0000000000000000e+00 0.0000000000000000e+00 0.0000000000000000e+00  0.0000000000000000e+00 0.0000000000000000e+00 0.0000000000000000e+00  0.0000000000000000e+00 0.0000000000000000e+00 0.0000000000000000e+00  0.0000000000000000e+00 0.0000000000000000e+00 0.0000000000000000e+00  0.0000000000000000e+00 0.0000000000000000e+00 0.0000000000000000e+00  0.0000000000000000e+00 0.0000000000000000e+00 0.0000000000000000e+00  0.0000000000000000e+00 0.0000000000000000e+00 0.0000000000000000e+00  0.0000000000000000e+00 0.0000000000000000e+00 0.0000000000000000e+00  0.0000000000000000e+00 0.0000000000000000e+00 0.0000000000000000e+00  0.0000000000000000e+00 0.0000000000000000e+00 0.0000000000000000e+00  -8.1260306220772092e-04 8.0499329027082099e-04 0.0000000000000000e+00  -2.3090357930612725e-03 9.4783338079474147e-04 0.0000000000000000e+00  -3.8405434732186466e-03 9.0541505189621911e-04 0.0000000000000000e+00  -5.2764473773661046e-03 8.3917966871425152e-04 0.0000000000000000e+00  -6.5843565653245567e-03 7.5237473093155128e-04 0.0000000000000000e+00  -7.7299321486433382e-03 6.4632081790041670e-04 0.0000000000000000e+00  -8.6833270999331271e-03 5.2261585049985775e-04 0.0000000000000000e+00  -9.4178501902446136e-03 3.8315510064882970e-04 0.0000000000000000e+00  -9.9106074572727493e-03 2.3022256166066633e-04 0.0000000000000000e+00  -1.0143098188130771e-02 6.6565412785795871e-05 0.0000000000000000e+00  -1.0101944436252215e-02 -1.0446614340855405e-04 0.0000000000000000e+00  -9.7798365148730835e-03 -2.7877840724084102e-04 0.0000000000000000e+00  -9.1766466642751402e-03 -4.5143976259681538e-04 0.0000000000000000e+00  -8.3006557457170789e-03 -6.1670404317971353e-04 0.0000000000000000e+00  -7.1695272948856864e-03 -7.6817816270200226e-04 0.0000000000000000e+00  -5.8111599097817688e-03 -8.9919598659202768e-04 0.0000000000000000e+00  -4.2635068114666554e-03 -1.0024739801949738e-03 0.0000000000000000e+00  -2.5823054759400938e-03 -1.0588762347587255e-03 0.0000000000000000e+00  -9.0202538854799292e-04 -9.0237308397388724e-04 0.0000000000000000e+00  0.0000000000000000e+00 0.0000000000000000e+00 0.0000000000000000e+00  0.0000000000000000e+00 0.0000000000000000e+00 0.0000000000000000e+00  -1.0097792785031558e-03 2.3374319946957317e-03 0.0000000000000000e+00  -2.8042588925458346e-03 2.6869454558583160e-03 0.0000000000000000e+00  -4.6163338526018331e-03 2.5769708519962947e-03 0.0000000000000000e+00  -6.3191916947831746e-03 2.3842562847548503e-03 0.0000000000000000e+00  -7.8663066864575002e-03 2.1317385761340834e-03 0.0000000000000000e+00  -9.2179482296816228e-03 1.8249232813542858e-03 0.0000000000000000e+00  -1.0339400256663279e-02 1.4690502059693977e-03 0.0000000000000000e+00  -1.1200086365226486e-02 1.0702032383899680e-03 0.0000000000000000e+00  -1.1774210438859071e-02 6.3530266972919639e-04 0.0000000000000000e+00  -1.2041148972945474e-02 1.7234404834003732e-04 0.0000000000000000e+00  -1.1986123938922138e-02 -3.0923798992810137e-04 0.0000000000000000e+00  -1.1601157994699978e-02 -7.9817792687824165e-04 0.0000000000000000e+00  -1.0886304246755187e-02 -1.2810920221869374e-03 0.0000000000000000e+00  -9.8511113493578890e-03 -1.7424599578656800e-03 0.0000000000000000e+00  -8.5158356662296628e-03 -2.1650368815599006e-03 0.0000000000000000e+00  -6.9130023607127909e-03 -2.5306501399887963e-03 0.0000000000000000e+00  -5.0870438962945762e-03 -2.8194490787935215e-03 0.0000000000000000e+00  -3.1014248047760689e-03 -2.9851931671140176e-03 0.0000000000000000e+00  -1.1150536540201793e-03 -2.6207352837210713e-03 0.0000000000000000e+00  0.0000000000000000e+00 0.0000000000000000e+00 0.0000000000000000e+00  0.0000000000000000e+00 0.0000000000000000e+00 0.0000000000000000e+00  -1.0600091576089773e-03 4.0260201483283756e-03 0.0000000000000000e+00  -2.9600635736967973e-03 4.5826143300733571e-03 0.0000000000000000e+00  -4.8747705553009229e-03 4.3932434586005020e-03 0.0000000000000000e+00  -6.6749983621922247e-03 4.0624596437197468e-03 0.0000000000000000e+00  -8.3114141361253033e-03 3.6293858903683968e-03 0.0000000000000000e+00  -9.7436232729348343e-03 3.1042010220315806e-03 0.0000000000000000e+00  -1.0935508018499806e-02 2.4966040367082557e-03 0.0000000000000000e+00  -1.1855440054047138e-02 1.8172388739600652e-03 0.0000000000000000e+00  -1.2476386537177708e-02 1.0778436902962791e-03 0.0000000000000000e+00  -1.2776121314775084e-02 2.9169597213950195e-04 0.0000000000000000e+00  -1.2737764516990912e-02 -5.2571650980466113e-04 0.0000000000000000e+00  -1.2350750909415509e-02 -1.3559181701918947e-03 0.0000000000000000e+00  -1.1612285827487721e-02 -2.1767977318640362e-03 0.0000000000000000e+00  -1.0529283496581917e-02 -2.9623954197024538e-03 0.0000000000000000e+00  -9.1202472478300982e-03 -3.6834250240675272e-03 0.0000000000000000e+00  -7.4176205011823298e-03 -4.3085535157473716e-03 0.0000000000000000e+00  -5.4675496200518522e-03 -4.8033793835580299e-03 0.0000000000000000e+00  -3.3380822085808605e-03 -5.0930607140472397e-03 0.0000000000000000e+00  -1.2014105496767047e-03 -4.5016653619531577e-03 0.0000000000000000e+00  0.0000000000000000e+00 0.0000000000000000e+00 0.0000000000000000e+00  0.0000000000000000e+00 0.0000000000000000e+00 0.0000000000000000e+00  -1.1333622757476367e-03 5.8126488825632847e-03 0.0000000000000000e+00  -3.1671587031041060e-03 6.5958701512347107e-03 0.0000000000000000e+00  -5.2176455839166181e-03 6.3229936782422582e-03 0.0000000000000000e+00  -7.1458164330212093e-03 5.8466031197401298e-03 0.0000000000000000e+00  -8.9000373070564614e-03 5.2237836333999298e-03 0.0000000000000000e+00  -1.0438638489291304e-02 4.4699570994703305e-03 0.0000000000000000e+00  -1.1724361305739041e-02 3.5993638619508388e-03 0.0000000000000000e+00  -1.2724606263371947e-02 2.6270764385887511e-03 0.0000000000000000e+00  -1.3410992193886230e-02 1.5692443131469645e-03 0.0000000000000000e+00  -1.3759231371009510e-02 4.4374945762082400e-04 0.0000000000000000e+00  -1.3749372045296622e-02 -7.2866711607184962e-04 0.0000000000000000e+00  -1.3366716671852677e-02 -1.9230033889381716e-03 0.0000000000000000e+00  -1.2603575040616852e-02 -3.1086748971943172e-03 0.0000000000000000e+00  -1.1461950290387520e-02 -4.2487759483920001e-03 0.0000000000000000e+00  -9.9565030680835234e-03 -5.3004840124059680e-03 0.0000000000000000e+00  -8.1183642967465365e-03 -6.2168149883082167e-03 0.0000000000000000e+00  -5.9957485138851961e-03 -6.9458387486221549e-03 0.0000000000000000e+00  -3.6644842456202372e-03 -7.3792447389271288e-03 0.0000000000000000e+00  -1.3185814876309626e-03 -6.5449954735992012e-03 0.0000000000000000e+00  0.0000000000000000e+00 0.0000000000000000e+00 0.0000000000000000e+00  0.0000000000000000e+00 0.0000000000000000e+00 0.0000000000000000e+00  -1.2351513474791716e-03 7.7445173696186649e-03 0.0000000000000000e+00  -3.4521097273132479e-03 8.7718972373515367e-03 0.0000000000000000e+00  -5.6870889106191329e-03 8.4080331860701980e-03 0.0000000000000000e+00  -7.7883625982411667e-03 7.7748435222099377e-03 0.0000000000000000e+00  -9.7013858577623558e-03 6.9492520930764532e-03 0.0000000000000000e+00  -1.1382756360992343e-02 5.9525476354407468e-03 0.0000000000000000e+00  -1.2794314511226257e-02 4.8038395937231001e-03 0.0000000000000000e+00  -1.3902782350669883e-02 3.5225367457415759e-03 0.0000000000000000e+00  -1.4678649360215568e-02 2.1285380694979765e-03 0.0000000000000000e+00  -1.5095368156090009e-02 6.4317316086038797e-04 0.0000000000000000e+00  -1.5129030184343686e-02 -9.0902155754168424e-04 0.0000000000000000e+00  -1.4759037499112256e-02 -2.4979227258979005e-03 0.0000000000000000e+00  -1.3970129408540413e-02 -4.0853082377489709e-03 0.0000000000000000e+00  -1.2756094880785818e-02 -5.6229921697732695e-03 0.0000000000000000e+00  -1.1124465166334965e-02 -7.0526050566267692e-03 0.0000000000000000e+00  -9.1028517482962534e-03 -8.3076895603597569e-03 0.0000000000000000e+00  -6.7414568373670583e-03 -9.3133148757077403e-03 0.0000000000000000e+00  -4.1273147412159610e-03 -9.9192570672091956e-03 0.0000000000000000e+00  -1.4856848611202135e-03 -8.8185235426093186e-03 0.0000000000000000e+00  0.0000000000000000e+00 0.0000000000000000e+00 0.0000000000000000e+00  0.0000000000000000e+00 0.0000000000000000e+00 0.0000000000000000e+00  -1.3681761160715237e-03 9.8686494818279440e-03 0.0000000000000000e+00  -3.8236209726224086e-03 1.1162827010365306e-02 0.0000000000000000e+00  -6.2967211316709544e-03 1.0697979928798904e-02 0.0000000000000000e+00  -8.6200189193899358e-03 9.8924771112016766e-03 0.0000000000000000e+00  -1.0735219709414040e-02 8.8460722677647288e-03 0.0000000000000000e+00  -1.2597248260970872e-02 7.5873769264521987e-03 0.0000000000000000e+00  -1.4167748210138881e-02 6.1411478816487935e-03 0.0000000000000000e+00  -1.5413760723440658e-02 4.5310821738017799e-03 0.0000000000000000e+00  -1.6305567245189775e-02 2.7798826103898216e-03 0.0000000000000000e+00  -1.6814752773743644e-02 9.1051701775598517e-04 0.0000000000000000e+00  -1.6912857457175537e-02 -1.0511436052198005e-03 0.0000000000000000e+00  -1.6571372822273361e-02 -3.0724875767988878e-03 0.0000000000000000e+00  -1.5763807254707579e-02 -5.1096752946618628e-03 0.0000000000000000e+00  -1.4470634033808563e-02 -7.1036194207547984e-03 0.0000000000000000e+00  -1.2686551752859130e-02 -8.9780882642686334e-03 0.0000000000000000e+00  -1.0431038263418360e-02 -1.0641508938901546e-02 0.0000000000000000e+00  -7.7546361920568727e-03 -1.1987124755316089e-02 0.0000000000000000e+00  -4.7591204976472172e-03 -1.2809538595857733e-02 0.0000000000000000e+00  -1.7146664593392545e-03 -1.1412267714783274e-02 0.0000000000000000e+00  0.0000000000000000e+00 0.0000000000000000e+00 0.0000000000000000e+00  0.0000000000000000e+00 0.0000000000000000e+00 0.0000000000000000e+00  -1.5366493388646297e-03 1.2239490186504750e-02 0.0000000000000000e+00  -4.2927125743474114e-03 1.3827541552354765e-02 0.0000000000000000e+00  -7.0632920595130070e-03 1.3246592933397857e-02 0.0000000000000000e+00  -9.6611312785846917e-03 1.2246818302250804e-02 0.0000000000000000e+00  -1.2023434714988337e-02 1.0955067663209502e-02 0.0000000000000000e+00  -1.4104114342429379e-02 9.4095779562109183e-03 0.0000000000000000e+00  -1.5866188609012823e-02 7.6421095205276776e-03 0.0000000000000000e+00  -1.7279107959196929e-02 5.6807888087428114e-03 0.0000000000000000e+00  -1.8315021631900800e-02 3.5498717956286702e-03 0.0000000000000000e+00  -1.8945107270617344e-02 1.2712885290557705e-03 0.0000000000000000e+00  -1.9136469448377776e-02 -1.1316597316293293e-03 0.0000000000000000e+00  -1.8850706372158250e-02 -3.6284812456268281e-03 0.0000000000000000e+00  -1.8045335568165313e-02 -6.1740453977452018e-03 0.0000000000000000e+00  -1.6679771097064651e-02 -8.7006962521504316e-03 0.0000000000000000e+00  -1.4726013955419510e-02 -1.1112393938119412e-02 0.0000000000000000e+00  -1.2186183795470890e-02 -1.3284457108146557e-02 0.0000000000000000e+00  -9.1063006541753054e-03 -1.5064255284642600e-02 0.0000000000000000e+00  -5.6068533306923339e-03 -1.6170197216278943e-02 0.0000000000000000e+00  -2.0228109598976677e-03 -1.4439295922189068e-02 0.0000000000000000e+00  0.0000000000000000e+00 0.0000000000000000e+00 0.0000000000000000e+00  0.0000000000000000e+00 0.0000000000000000e+00 0.0000000000000000e+00  -1.7468859379786640e-03 1.4919597762060791e-02 0.0000000000000000e+00  -4.8757238604926634e-03 1.6832287640595599e-02 0.0000000000000000e+00  -8.0107154238991014e-03 1.6112870125980946e-02 0.0000000000000000e+00  -1.0939722597324335e-02 1.4887848742721314e-02 0.0000000000000000e+00  -1.3594897638779389e-02 1.3317419757929628e-02 0.0000000000000000e+00  -1.5930627565783385e-02 1.1453213611739399e-02 0.0000000000000000e+00  -1.7914220092248412e-02 9.3362967770171234e-03 0.0000000000000000e+00  -1.9521248586619782e-02 6.9997158431670337e-03 0.0000000000000000e+00  -2.0729569023972071e-02 4.4677427925800513e-03 0.0000000000000000e+00  -2.1513124797862611e-02 1.7576318352923090e-03 0.0000000000000000e+00  -2.1836221208616703e-02 -1.1156495418328766e-03 0.0000000000000000e+00  -2.1649544142123354e-02 -4.1315268298487999e-03 0.0000000000000000e+00  -2.0889021184030875e-02 -7.2522502273268102e-03 0.0000000000000000e+00  -1.9481527081755753e-02 -1.0407844687361103e-02 0.0000000000000000e+00  -1.7359613410714066e-02 -1.3482146974443113e-02 0.0000000000000000e+00  -1.4490440569740019e-02 -1.6307102677079854e-02 0.0000000000000000e+00  -1.0903925518099357e-02 -1.8662798286218980e-02 0.0000000000000000e+00  -6.7426108839065127e-03 -2.0157007174438388e-02 0.0000000000000000e+00  -2.4367283957473815e-03 -1.8048444531126147e-02 0.0000000000000000e+00  0.0000000000000000e+00 0.0000000000000000e+00 0.0000000000000000e+00  0.0000000000000000e+00 0.0000000000000000e+00 0.0000000000000000e+00  -2.0086120850482925e-03 1.7983896286336468e-02 0.0000000000000000e+00  -5.5970198880774371e-03 2.0254233582214336e-02 0.0000000000000000e+00  -9.1736321023653932e-03 1.9362499266103207e-02 0.0000000000000000e+00  -1.2495019564839546e-02 1.7867634986341877e-02 0.0000000000000000e+00  -1.5488099842340376e-02 1.5972567728819349e-02 0.0000000000000000e+00  -1.8110640886600329e-02 1.3748243749536463e-02 0.0000000000000000e+00  -2.0339182891957380e-02 1.1248651229019602e-02 0.0000000000000000e+00  -2.2161439307506980e-02 8.5127834916750664e-03 0.0000000000000000e+00  -2.3567190052621003e-02 5.5633117639614692e-03 0.0000000000000000e+00  -2.4538916860866729e-02 2.4083094389239744e-03 0.0000000000000000e+00  -2.5043074302809654e-02 -9.5400191551741373e-04 0.0000000000000000e+00  -2.5020741651582305e-02 -4.5253922288784427e-03 0.0000000000000000e+00  -2.4380282158174879e-02 -8.2893088553551292e-03 0.0000000000000000e+00  -2.3001232217280843e-02 -1.2186163488535212e-02 0.0000000000000000e+00  -2.0750653564292596e-02 -1.6088336853832493e-02 0.0000000000000000e+00  -1.7527089298101050e-02 -1.9777668011246283e-02 0.0000000000000000e+00  -1.3315416741102272e-02 -2.2932460229838230e-02 0.0000000000000000e+00  -8.2794246209654792e-03 -2.4984112818025268e-02 0.0000000000000000e+00  -2.9968879568862150e-03 -2.2443959281488540e-02 0.0000000000000000e+00  0.0000000000000000e+00 0.0000000000000000e+00 0.0000000000000000e+00  0.0000000000000000e+00 0.0000000000000000e+00 0.0000000000000000e+00  -2.3371533480364636e-03 2.1526141126170371e-02 0.0000000000000000e+00  -6.4938103992477347e-03 2.4186063437538433e-02 0.0000000000000000e+00  -1.0603372564246719e-02 2.3069554026443718e-02 0.0000000000000000e+00  -1.4382973499981508e-02 2.1239264065329531e-02 0.0000000000000000e+00  -1.7755159271594521e-02 1.8954994164052538e-02 0.0000000000000000e+00  -2.0686508718988403e-02 1.6315994797528689e-02 0.0000000000000000e+00  -2.3170811820346807e-02 1.3394417206245145e-02 0.0000000000000000e+00  -2.5216929802502012e-02 1.0236896512775075e-02 0.0000000000000000e+00  -2.6835657086920511e-02 6.8629828511198405e-03 0.0000000000000000e+00  -2.8028062266954312e-02 3.2659525303587499e-03 0.0000000000000000e+00  -2.8772229860496119e-02 -5.8265420998348800e-04 0.0000000000000000e+00  -2.9002758451790803e-02 -4.7190506158208585e-03 0.0000000000000000e+00  -2.8603247202579705e-02 -9.1691766206131835e-03 0.0000000000000000e+00  -2.7394274781701113e-02 -1.3926546133823133e-02 0.0000000000000000e+00  -2.5133597495119717e-02 -1.8888350034719999e-02 0.0000000000000000e+00  -2.1580397228072912e-02 -2.3772013938919138e-02 0.0000000000000000e+00  -1.6607853952596792e-02 -2.8079250844006285e-02 0.0000000000000000e+00  -1.0396561844674284e-02 -3.0950382977342473e-02 0.0000000000000000e+00  -3.7670973925433369e-03 -2.7908192057437393e-02 0.0000000000000000e+00  0.0000000000000000e+00 0.0000000000000000e+00 0.0000000000000000e+00  0.0000000000000000e+00 0.0000000000000000e+00 0.0000000000000000e+00  -2.7574991446934600e-03 2.5669546740388533e-02 0.0000000000000000e+00  -7.6246118511996194e-03 2.8743061217805298e-02 0.0000000000000000e+00  -1.2377860240870522e-02 2.7318436238840560e-02 0.0000000000000000e+00  -1.6684989529728019e-02 2.5054181303030616e-02 0.0000000000000000e+00  -2.0467842819263296e-02 2.2288465766207185e-02 0.0000000000000000e+00  -2.3711959591094824e-02 1.9161855196095735e-02 0.0000000000000000e+00  -2.6441057595413178e-02 1.5771345967754601e-02 0.0000000000000000e+00  -2.8697682244630370e-02 1.2173084622311408e-02 0.0000000000000000e+00  -3.0526421155779953e-02 8.3816991398830299e-03 0.0000000000000000e+00  -3.1961589979700063e-02 4.3711194501654680e-03 0.0000000000000000e+00  -3.3001704642907255e-02 8.2260975930864024e-05 0.0000000000000000e+00  -3.3594985525755773e-02 -4.5787533072539129e-03 0.0000000000000000e+00  -3.3637518860655614e-02 -9.7483066378656422e-03 0.0000000000000000e+00  -3.2849905075402419e-02 -1.5529324051592689e-02 0.0000000000000000e+00  -3.0823976449811871e-02 -2.1817915655821609e-02 0.0000000000000000e+00  -2.7074456288552377e-02 -2.8290876150821809e-02 0.0000000000000000e+00  -2.1223514632560444e-02 -3.4277369863876916e-02 0.0000000000000000e+00  -1.3409954203356391e-02 -3.8457261094063375e-02 0.0000000000000000e+00  -4.8666766870010857e-03 -3.4887473944638307e-02 0.0000000000000000e+00  0.0000000000000000e+00 0.0000000000000000e+00 0.0000000000000000e+00  0.0000000000000000e+00 0.0000000000000000e+00 0.0000000000000000e+00  -3.3120498530462305e-03 3.0584867363061891e-02 0.0000000000000000e+00  -9.0844237014939960e-03 3.4073768358440580e-02 0.0000000000000000e+00  -1.4618240590886818e-02 3.2205292730674510e-02 0.0000000000000000e+00  -1.9521420350277825e-02 2.9356296617820812e-02 0.0000000000000000e+00  -2.3725952153806931e-02 2.5976223316521801e-02 0.0000000000000000e+00  -2.7255642767408578e-02 2.2264328688949203e-02 0.0000000000000000e+00  -3.0183903309788936e-02 1.8348829928902542e-02 0.0000000000000000e+00  -3.2603614831644874e-02 1.4295380715450275e-02 0.0000000000000000e+00  -3.4609147558176741e-02 1.0111598426365241e-02 0.0000000000000000e+00  -3.6279016727833791e-02 5.7527456084296887e-03 0.0000000000000000e+00  -3.7646495152672189e-02 1.1232284251175204e-03 0.0000000000000000e+00  -3.8759006528334979e-02 -3.9709227328176061e-03 0.0000000000000000e+00  -3.9487885829859938e-02 -9.7356202424810894e-03 0.0000000000000000e+00  -3.9427775230058582e-02 -1.6310482882162105e-02 0.0000000000000000e+00  -3.8213757635649354e-02 -2.3967138092507105e-02 0.0000000000000000e+00  -3.4771949094603849e-02 -3.2892692151665764e-02 0.0000000000000000e+00  -2.8042967297754014e-02 -4.1868471287505281e-02 0.0000000000000000e+00  -1.7880411875741593e-02 -4.8397898865894032e-02 0.0000000000000000e+00  -6.4535921462363331e-03 -4.4169696325820657e-02 0.0000000000000000e+00  0.0000000000000000e+00 0.0000000000000000e+00 0.0000000000000000e+00  0.0000000000000000e+00 0.0000000000000000e+00 0.0000000000000000e+00  -4.0761927172746938e-03 3.6521986217481581e-02 0.0000000000000000e+00  -1.1032694780633607e-02 4.0375991383482884e-02 0.0000000000000000e+00  -1.7517112622212932e-02 3.7836516510640530e-02 0.0000000000000000e+00  -2.3071661632304535e-02 3.4169072491646427e-02 0.0000000000000000e+00  -2.7667468088151237e-02 2.9984150990064105e-02 0.0000000000000000e+00  -3.1403875080458457e-