<?xml version="1.0"?>
<VTKFile type="UnstructuredGrid"  version="0.1"  >
<UnstructuredGrid>
<Piece  NumberOfPoints="441" NumberOfCells="800">
<Points>
<DataArray  type="Float64"  NumberOfComponents="3"  format="ascii">0 0 0  0.05 0 0  0.1 0 0  0.15 0 0  0.2 0 0  0.25 0 0  0.3 0 0  0.35 0 0  0.4 0 0  0.45 0 0  0.5 0 0  0.55 0 0  0.6 0 0  0.65 0 0  0.7 0 0  0.75 0 0  0.8 0 0  0.85 0 0  0.9 0 0  0.95 0 0  1 0 0  0 0.05 0  0.05 0.05 0  0.1 0.05 0  0.15 0.05 0  0.2 0.05 0  0.25 0.05 0  0.3 0.05 0  0.35 0.05 0  0.4 0.05 0  0.45 0.05 0  0.5 0.05 0  0.55 0.05 0  0.6 0.05 0  0.65 0.05 0  0.7 0.05 0  0.75 0.05 0  0.8 0.05 0  0.85 0.05 0  0.9 0.05 0  0.95 0.05 0  1 0.05 0  0 0.1 0  0.05 0.1 0  0.1 0.1 0  0.15 0.1 0  0.2 0.1 0  0.25 0.1 0  0.3 0.1 0  0.35 0.1 0  0.4 0.1 0  0.45 0.1 0  0.5 0.1 0  0.55 0.1 0  0.6 0.1 0  0.65 0.1 0  0.7 0.1 0  0.75 0.1 0  0.8 0.1 0  0.85 0.1 0  0.9 0.1 0  0.95 0.1 0  1 0.1 0  0 0.15 0  0.05 0.15 0  0.1 0.15 0  0.15 0.15 0  0.2 0.15 0  0.25 0.15 0  0.3 0.15 0  0.35 0.15 0  0.4 0.15 0  0.45 0.15 0  0.5 0.15 0  0.55 0.15 0  0.6 0.15 0  0.65 0.15 0  0.7 0.15 0  0.75 0.15 0  0.8 0.15 0  0.85 0.15 0  0.9 0.15 0  0.95 0.15 0  1 0.15 0  0 0.2 0  0.05 0.2 0  0.1 0.2 0  0.15 0.2 0  0.2 0.2 0  0.25 0.2 0  0.3 0.2 0  0.35 0.2 0  0.4 0.2 0  0.45 0.2 0  0.5 0.2 0  0.55 0.2 0  0.6 0.2 0  0.65 0.2 0  0.7 0.2 0  0.75 0.2 0  0.8 0.2 0  0.85 0.2 0  0.9 0.2 0  0.95 0.2 0  1 0.2 0  0 0.25 0  0.05 0.25 0  0.1 0.25 0  0.15 0.25 0  0.2 0.25 0  0.25 0.25 0  0.3 0.25 0  0.35 0.25 0  0.4 0.25 0  0.45 0.25 0  0.5 0.25 0  0.55 0.25 0  0.6 0.25 0  0.65 0.25 0  0.7 0.25 0  0.75 0.25 0  0.8 0.25 0  0.85 0.25 0  0.9 0.25 0  0.95 0.25 0  1 0.25 0  0 0.3 0  0.05 0.3 0  0.1 0.3 0  0.15 0.3 0  0.2 0.3 0  0.25 0.3 0  0.3 0.3 0  0.35 0.3 0  0.4 0.3 0  0.45 0.3 0  0.5 0.3 0  0.55 0.3 0  0.6 0.3 0  0.65 0.3 0  0.7 0.3 0  0.75 0.3 0  0.8 0.3 0  0.85 0.3 0  0.9 0.3 0  0.95 0.3 0  1 0.3 0  0 0.35 0  0.05 0.35 0  0.1 0.35 0  0.15 0.35 0  0.2 0.35 0  0.25 0.35 0  0.3 0.35 0  0.35 0.35 0  0.4 0.35 0  0.45 0.35 0  0.5 0.35 0  0.55 0.35 0  0.6 0.35 0  0.65 0.35 0  0.7 0.35 0  0.75 0.35 0  0.8 0.35 0  0.85 0.35 0  0.9 0.35 0  0.95 0.35 0  1 0.35 0  0 0.4 0  0.05 0.4 0  0.1 0.4 0  0.15 0.4 0  0.2 0.4 0  0.25 0.4 0  0.3 0.4 0  0.35 0.4 0  0.4 0.4 0  0.45 0.4 0  0.5 0.4 0  0.55 0.4 0  0.6 0.4 0  0.65 0.4 0  0.7 0.4 0  0.75 0.4 0  0.8 0.4 0  0.85 0.4 0  0.9 0.4 0  0.95 0.4 0  1 0.4 0  0 0.45 0  0.05 0.45 0  0.1 0.45 0  0.15 0.45 0  0.2 0.45 0  0.25 0.45 0  0.3 0.45 0  0.35 0.45 0  0.4 0.45 0  0.45 0.45 0  0.5 0.45 0  0.55 0.45 0  0.6 0.45 0  0.65 0.45 0  0.7 0.45 0  0.75 0.45 0  0.8 0.45 0  0.85 0.45 0  0.9 0.45 0  0.95 0.45 0  1 0.45 0  0 0.5 0  0.05 0.5 0  0.1 0.5 0  0.15 0.5 0  0.2 0.5 0  0.25 0.5 0  0.3 0.5 0  0.35 0.5 0  0.4 0.5 0  0.45 0.5 0  0.5 0.5 0  0.55 0.5 0  0.6 0.5 0  0.65 0.5 0  0.7 0.5 0  0.75 0.5 0  0.8 0.5 0  0.85 0.5 0  0.9 0.5 0  0.95 0.5 0  1 0.5 0  0 0.55 0  0.05 0.55 0  0.1 0.55 0  0.15 0.55 0  0.2 0.55 0  0.25 0.55 0  0.3 0.55 0  0.35 0.55 0  0.4 0.55 0  0.45 0.55 0  0.5 0.55 0  0.55 0.55 0  0.6 0.55 0  0.65 0.55 0  0.7 0.55 0  0.75 0.55 0  0.8 0.55 0  0.85 0.55 0  0.9 0.55 0  0.95 0.55 0  1 0.55 0  0 0.6 0  0.05 0.6 0  0.1 0.6 0  0.15 0.6 0  0.2 0.6 0  0.25 0.6 0  0.3 0.6 0  0.35 0.6 0  0.4 0.6 0  0.45 0.6 0  0.5 0.6 0  0.55 0.6 0  0.6 0.6 0  0.65 0.6 0  0.7 0.6 0  0.75 0.6 0  0.8 0.6 0  0.85 0.6 0  0.9 0.6 0  0.95 0.6 0  1 0.6 0  0 0.65 0  0.05 0.65 0  0.1 0.65 0  0.15 0.65 0  0.2 0.65 0  0.25 0.65 0  0.3 0.65 0  0.35 0.65 0  0.4 0.65 0  0.45 0.65 0  0.5 0.65 0  0.55 0.65 0  0.6 0.65 0  0.65 0.65 0  0.7 0.65 0  0.75 0.65 0  0.8 0.65 0  0.85 0.65 0  0.9 0.65 0  0.95 0.65 0  1 0.65 0  0 0.7 0  0.05 0.7 0  0.1 0.7 0  0.15 0.7 0  0.2 0.7 0  0.25 0.7 0  0.3 0.7 0  0.35 0.7 0  0.4 0.7 0  0.45 0.7 0  0.5 0.7 0  0.55 0.7 0  0.6 0.7 0  0.65 0.7 0  0.7 0.7 0  0.75 0.7 0  0.8 0.7 0  0.85 0.7 0  0.9 0.7 0  0.95 0.7 0  1 0.7 0  0 0.75 0  0.05 0.75 0  0.1 0.75 0  0.15 0.75 0  0.2 0.75 0  0.25 0.75 0  0.3 0.75 0  0.35 0.75 0  0.4 0.75 0  0.45 0.75 0  0.5 0.75 0  0.55 0.75 0  0.6 0.75 0  0.65 0.75 0  0.7 0.75 0  0.75 0.75 0  0.8 0.75 0  0.85 0.75 0  0.9 0.75 0  0.95 0.75 0  1 0.75 0  0 0.8 0  0.05 0.8 0  0.1 0.8 0  0.15 0.8 0  0.2 0.8 0  0.25 0.8 0  0.3 0.8 0  0.35 0.8 0  0.4 0.8 0  0.45 0.8 0  0.5 0.8 0  0.55 0.8 0  0.6 0.8 0  0.65 0.8 0  0.7 0.8 0  0.75 0.8 0  0.8 0.8 0  0.85 0.8 0  0.9 0.8 0  0.95 0.8 0  1 0.8 0  0 0.85 0  0.05 0.85 0  0.1 0.85 0  0.15 0.85 0  0.2 0.85 0  0.25 0.85 0  0.3 0.85 0  0.35 0.85 0  0.4 0.85 0  0.45 0.85 0  0.5 0.85 0  0.55 0.85 0  0.6 0.85 0  0.65 0.85 0  0.7 0.85 0  0.75 0.85 0  0.8 0.85 0  0.85 0.85 0  0.9 0.85 0  0.95 0.85 0  1 0.85 0  0 0.9 0  0.05 0.9 0  0.1 0.9 0  0.15 0.9 0  0.2 0.9 0  0.25 0.9 0  0.3 0.9 0  0.35 0.9 0  0.4 0.9 0  0.45 0.9 0  0.5 0.9 0  0.55 0.9 0  0.6 0.9 0  0.65 0.9 0  0.7 0.9 0  0.75 0.9 0  0.8 0.9 0  0.85 0.9 0  0.9 0.9 0  0.95 0.9 0  1 0.9 0  0 0.95 0  0.05 0.95 0  0.1 0.95 0  0.15 0.95 0  0.2 0.95 0  0.25 0.95 0  0.3 0.95 0  0.35 0.95 0  0.4 0.95 0  0.45 0.95 0  0.5 0.95 0  0.55 0.95 0  0.6 0.95 0  0.65 0.95 0  0.7 0.95 0  0.75 0.95 0  0.8 0.95 0  0.85 0.95 0  0.9 0.95 0  0.95 0.95 0  1 0.95 0  0 1 0  0.05 1 0  0.1 1 0  0.15 1 0  0.2 1 0  0.25 1 0  0.3 1 0  0.35 1 0  0.4 1 0  0.45 1 0  0.5 1 0  0.55 1 0  0.6 1 0  0.65 1 0  0.7 1 0  0.75 1 0  0.8 1 0  0.85 1 0  0.9 1 0  0.95 1 0  1 1 0  </DataArray>
</Points>
<Cells>
[...]
<PointData  Vectors="f_137"> 
<DataArray  type="Float64"  Name="f_137"  NumberOfComponents="3" format="ascii">0.0000000000000000e+00 0.0000000000000000e+00 0.0000000000000000e+00  0.0000000000000000e+00 0.0000000000000000e+00 0.0000000000000000e+00  0.0000000000000000e+00 0.0000000000000000e+00 0.0000000000000000e+00  0.0000000000000000e+00 0.0000000000000000e+00 0.0000000000000000e+00  0.0000000000000000e+00 0.0000000000000000e+00 0.0000000000000000e+00  0.0000000000000000e+00 0.0000000000000000e+00 0.0000000000000000e+00  0.0000000000000000e+00 0.0000000000000000e+00 0.0000000000000000e+00  0.0000000000000000e+00 0.0000000000000000e+00 0.0000000000000000e+00  0.0000000000000000e+00 0.0000000000000000e+00 0.0000000000000000e+00  0.0000000000000000e+00 0.0000000000000000e+00 0.0000000000000000e+00  0.0000000000000000e+00 0.0000000000000000e+00 0.0000000000000000e+00  0.0000000000000000e+00 0.0000000000000000e+00 0.0000000000000000e+00  0.0000000000000000e+00 0.0000000000000000e+00 0.0000000000000000e+00  0.0000000000000000e+00 0.0000000000000000e+00 0.0000000000000000e+00  0.0000000000000000e+00 0.0000000000000000e+00 0.0000000000000000e+00  0.0000000000000000e+00 0.0000000000000000e+00 0.0000000000000000e+00  0.0000000000000000e+00 0.0000000000000000e+00 0.0000000000000000e+00  0.0000000000000000e+00 0.0000000000000000e+00 0.0000000000000000e+00  0.0000000000000000e+00 0.0000000000000000e+00 0.0000000000000000e+00  0.0000000000000000e+00 0.0000000000000000e+00 0.0000000000000000e+00  0.0000000000000000e+00 0.0000000000000000e+00 0.0000000000000000e+00  0.0000000000000000e+00 0.0000000000000000e+00 0.0000000000000000e+00  -8.1012106403439553e-04 8.0252481259143640e-04 0.0000000000000000e+00  -2.3109991071487376e-03 9.5056684770643870e-04 0.0000000000000000e+00  -3.8515544172868722e-03 9.0893762469565432e-04 0.0000000000000000e+00  -5.2967427372851116e-03 8.4291163728138327e-04 0.0000000000000000e+00  -6.6138990868478600e-03 7.5629875310133268e-04 0.0000000000000000e+00  -7.7684655403660050e-03 6.5035220139095338e-04 0.0000000000000000e+00  -8.7303417125865063e-03 5.2661346209912502e-04 0.0000000000000000e+00  -9.4725129421746653e-03 3.8692316266380827e-04 0.0000000000000000e+00  -9.9717025162128718e-03 2.3352000337503658e-04 0.0000000000000000e+00  -1.0208987638848071e-02 6.9120614817261083e-05 0.0000000000000000e+00  -1.0170557385896365e-02 -1.0293313656364063e-04 0.0000000000000000e+00  -9.8486978667146254e-03 -2.7852663423934434e-04 0.0000000000000000e+00  -9.2429536982111555e-03 -4.5267291529024674e-04 0.0000000000000000e+00  -8.3614083838008633e-03 -6.1953519082704909e-04 0.0000000000000000e+00  -7.2217070604555468e-03 -7.7260007117705711e-04 0.0000000000000000e+00  -5.8519438222505377e-03 -9.0506163417697013e-04 0.0000000000000000e+00  -4.2905294333649962e-03 -1.0094195846455374e-03 0.0000000000000000e+00  -2.5942323221690394e-03 -1.0657702251851782e-03 0.0000000000000000e+00  -9.0297937402247547e-04 -9.0345034714561475e-04 0.0000000000000000e+00  0.0000000000000000e+00 0.0000000000000000e+00 0.0000000000000000e+00  0.0000000000000000e+00 0.0000000000000000e+00 0.0000000000000000e+00  -1.0126278097619687e-03 2.3396015252607374e-03 0.0000000000000000e+00  -2.8208724952760921e-03 2.7031047269731293e-03 0.0000000000000000e+00  -4.6510761793639296e-03 2.5949720593709921e-03 0.0000000000000000e+00  -6.3718303816032110e-03 2.4021178334788303e-03 0.0000000000000000e+00  -7.9360114272347213e-03 2.1490938704639044e-03 0.0000000000000000e+00  -9.3034252678708389e-03 1.8413563673336010e-03 0.0000000000000000e+00  -1.0438932445936194e-02 1.4840342899126141e-03 0.0000000000000000e+00  -1.1311486758130242e-02 1.0831098260837965e-03 0.0000000000000000e+00  -1.1894796143091489e-02 6.4542337656693053e-04 0.0000000000000000e+00  -1.2167728931506448e-02 1.7892883823776719e-04 0.0000000000000000e+00  -1.2115015276052741e-02 -3.0692344356332481e-04 0.0000000000000000e+00  -1.1728243957124497e-02 -8.0077630366598765e-04 0.0000000000000000e+00  -1.1007144698952139e-02 -1.2890646235640866e-03 0.0000000000000000e+00  -9.9611157064691917e-03 -1.7559935279897302e-03 0.0000000000000000e+00  -8.6104955415588630e-03 -2.1839623689278039e-03 0.0000000000000000e+00  -6.9881621761613572e-03 -2.5543893253835641e-03 0.0000000000000000e+00  -5.1392945936087750e-03 -2.8468279831096034e-03 0.0000000000000000e+00  -3.1286821664115471e-03 -3.0128844538233287e-03 0.0000000000000000e+00  -1.1215224236961053e-03 -2.6326052313890400e-03 0.0000000000000000e+00  0.0000000000000000e+00 0.0000000000000000e+00 0.0000000000000000e+00  0.0000000000000000e+00 0.0000000000000000e+00 0.0000000000000000e+00  -1.0633720611679769e-03 4.0375978500049817e-03 0.0000000000000000e+00  -2.9787497054375089e-03 4.6172586069604940e-03 0.0000000000000000e+00  -4.9131104089747751e-03 4.4304346686708700e-03 0.0000000000000000e+00  -6.7327415304678359e-03 4.0988606925627521e-03 0.0000000000000000e+00  -8.3876852753741269e-03 3.6641585226376782e-03 0.0000000000000000e+00  -9.8370946398119510e-03 3.1364929927386685e-03 0.0000000000000000e+00  -1.1044406503212078e-02 2.5254217261259245e-03 0.0000000000000000e+00  -1.1977496856163656e-02 1.8414516407693610e-03 0.0000000000000000e+00  -1.2608797474022789e-02 1.0962128853790247e-03 0.0000000000000000e+00  -1.2915515882042842e-02 3.0293357533447653e-04 0.0000000000000000e+00  -1.2880201011470685e-02 -5.2285627239382650e-04 0.0000000000000000e+00  -1.2491754582810226e-02 -1.3625130996532760e-03 0.0000000000000000e+00  -1.1746947989837145e-02 -2.1936040481301982e-03 0.0000000000000000e+00  -1.0652440379203520e-02 -2.9896828718090499e-03 0.0000000000000000e+00  -9.2267415827923596e-03 -3.7208275578586286e-03 0.0000000000000000e+00  -7.5026308842233063e-03 -4.3549615467177623e-03 0.0000000000000000e+00  -5.5270482704884265e-03 -4.8566506134502634e-03 0.0000000000000000e+00  -3.3694566919528772e-03 -5.1473166573374031e-03 0.0000000000000000e+00  -1.2091212501019765e-03 -4.5293679974044770e-03 0.0000000000000000e+00  0.0000000000000000e+00 0.0000000000000000e+00 0.0000000000000000e+00  0.0000000000000000e+00 0.0000000000000000e+00 0.0000000000000000e+00  -1.1364786271869775e-03 5.8338347129321937e-03 0.0000000000000000e+00  -3.1860279151957080e-03 6.6498240690627463e-03 0.0000000000000000e+00  -5.2569844392978751e-03 6.3802756407375927e-03 0.0000000000000000e+00  -7.2054789564371764e-03 5.9024994494206520e-03 0.0000000000000000e+00  -8.9792717087837041e-03 5.2770110030334761e-03 0.0000000000000000e+00  -1.0536273196703885e-02 4.5192382811743391e-03 0.0000000000000000e+00  -1.1838781482631091e-02 3.6432312439532446e-03 0.0000000000000000e+00  -1.2853684524824481e-02 2.6638680991865728e-03 0.0000000000000000e+00  -1.3552016971050575e-02 1.5971360065722363e-03 0.0000000000000000e+00  -1.3908838512513694e-02 4.6082781306938371e-04 0.0000000000000000e+00  -1.3903496059680691e-02 -7.2428070147992623e-04 0.0000000000000000e+00  -1.3520585486626059e-02 -1.9329719506727574e-03 0.0000000000000000e+00  -1.2751777256182420e-02 -3.1342124920968988e-03 0.0000000000000000e+00  -1.1598610118997182e-02 -4.2903830923372820e-03 0.0000000000000000e+00  -1.0075579899909893e-02 -5.3576935839150719e-03 0.0000000000000000e+00  -8.2140669699601702e-03 -6.2879984666303164e-03 0.0000000000000000e+00  -6.0631255558895184e-03 -7.0277873023034815e-03 0.0000000000000000e+00  -3.7002447625106472e-03 -7.4632405738533567e-03 0.0000000000000000e+00  -1.3275177188128136e-03 -6.5906679388063449e-03 0.0000000000000000e+00  0.0000000000000000e+00 0.0000000000000000e+00 0.0000000000000000e+00  0.0000000000000000e+00 0.0000000000000000e+00 0.0000000000000000e+00  -1.2380007992994666e-03 7.7753560650970482e-03 0.0000000000000000e+00  -3.4712496261615909e-03 8.8459920145978008e-03 0.0000000000000000e+00  -5.7277234182897931e-03 8.4864017890898934e-03 0.0000000000000000e+00  -7.8505017826139400e-03 7.8513681865921333e-03 0.0000000000000000e+00  -9.7844658980563229e-03 7.0222423509422576e-03 0.0000000000000000e+00  -1.1485826623561858e-02 6.0203223743863906e-03 0.0000000000000000e+00  -1.2915997541737329e-02 4.8644549304838391e-03 0.0000000000000000e+00  -1.4041177092283532e-02 3.5737679293004472e-03 0.0000000000000000e+00  -1.4831219569083450e-02 2.1679036220308744e-03 0.0000000000000000e+00  -1.5258820457263261e-02 6.6801184153180847e-04 0.0000000000000000e+00  -1.5299197486842844e-02 -9.0140180399190801e-04 0.0000000000000000e+00  -1.4930799056610539e-02 -2.5100064204123290e-03 0.0000000000000000e+00  -1.4137412225949499e-02 -4.1190384742304867e-03 0.0000000000000000e+00  -1.2912020316688675e-02 -5.6793619118142378e-03 0.0000000000000000e+00  -1.1261687884545414e-02 -7.1312343011068402e-03 0.0000000000000000e+00  -9.2141030958673396e-03 -8.4064790427447050e-03 0.0000000000000000e+00  -6.8203634366340686e-03 -9.4278398681619715e-03 0.0000000000000000e+00  -4.1695373013330653e-03 -1.0037403804993662e-02 0.0000000000000000e+00  -1.4964473527183232e-03 -8.8850867362453810e-03 0.0000000000000000e+00  0.0000000000000000e+00 0.0000000000000000e+00 0.0000000000000000e+00  0.0000000000000000e+00 0.0000000000000000e+00 0.0000000000000000e+00  -1.3706800714587135e-03 9.9091870044754286e-03 0.0000000000000000e+00  -3.8430856184124458e-03 1.1258059219028166e-02 0.0000000000000000e+00  -6.3389435663594017e-03 1.0798660039429378e-02 0.0000000000000000e+00  -8.6852118700349763e-03 9.9910529814123353e-03 0.0000000000000000e+00  -1.0823068713692747e-02 8.9404881461034036e-03 0.0000000000000000e+00  -1.2707100619296738e-02 7.6755827871712772e-03 0.0000000000000000e+00  -1.4298559487019122e-02 6.2207365301419305e-03 0.0000000000000000e+00  -1.5563969141101081e-02 4.5992441860620639e-03 0.0000000000000000e+00  -1.6472936708124105e-02 2.8334060575960292e-03 0.0000000000000000e+00  -1.6996182352544274e-02 9.4584776596267023e-04 0.0000000000000000e+00  -1.7104167728164373e-02 -1.0377486707785866e-03 0.0000000000000000e+00  -1.6767102810327041e-02 -3.0846726837490484e-03 0.0000000000000000e+00  -1.5957087098583598e-02 -5.1505296458247687e-03 0.0000000000000000e+00  -1.4653246094093967e-02 -7.1750615569931711e-03 0.0000000000000000e+00  -1.2849288692231259e-02 -9.0801713542630128e-03 0.0000000000000000e+00  -1.0564424997445971e-02 -1.0771797302836146e-02 0.0000000000000000e+00  -7.8501114656551307e-03 -1.2139772434144566e-02 0.0000000000000000e+00  -4.8107054069969658e-03 -1.2968198213834726e-02 0.0000000000000000e+00  -1.7281153538092802e-03 -1.1504053619904106e-02 0.0000000000000000e+00  0.0000000000000000e+00 0.0000000000000000e+00 0.0000000000000000e+00  0.0000000000000000e+00 0.0000000000000000e+00 0.0000000000000000e+00  -1.5386738145213596e-03 1.2289743938226072e-02 0.0000000000000000e+00  -4.3124301462732859e-03 1.3945106235690631e-02 0.0000000000000000e+00  -7.1072121472054196e-03 1.3371051598739818e-02 0.0000000000000000e+00  -9.7297154902346999e-03 1.2369161834631350e-02 0.0000000000000000e+00  -1.2116685664258548e-02 1.1072939137768316e-02 0.0000000000000000e+00  -1.4221770381755067e-02 9.5206162335154821e-03 0.0000000000000000e+00  -1.6007660892009255e-02 7.7434818956084433e-03 0.0000000000000000e+00  -1.7443330204524602e-02 5.7691049451373102e-03 0.0000000000000000e+00  -1.8500250163328635e-02 3.6211352463761349e-03 0.0000000000000000e+00  -1.9148654528739345e-02 1.3209032652454014e-03 0.0000000000000000e+00  -1.9354357465803291e-02 -1.1087724968206090e-03 0.0000000000000000e+00  -1.9077272614453199e-02 -3.6375725921771263e-03 0.0000000000000000e+00  -1.8272873884942753e-02 -6.2199638087554821e-03 0.0000000000000000e+00  -1.6898387535884601e-02 -8.7870082794111910e-03 0.0000000000000000e+00  -1.4923912767113540e-02 -1.1240250391640083e-02 0.0000000000000000e+00  -1.2350594285543082e-02 -1.3451420338761105e-02 0.0000000000000000e+00  -9.2252509094140327e-03 -1.5262785990722118e-02 0.0000000000000000e+00  -5.6717728510196196e-03 -1.6378426132776271e-02 0.0000000000000000e+00  -2.0401095902949809e-03 -1.4562511613362921e-02 0.0000000000000000e+00  0.0000000000000000e+00 0.0000000000000000e+00 0.0000000000000000e+00  0.0000000000000000e+00 0.0000000000000000e+00 0.0000000000000000e+00  -1.7482300042860474e-03 1.4979472867081211e-02 0.0000000000000000e+00  -4.8954713866167805e-03 1.6973490749175542e-02 0.0000000000000000e+00  -8.0562113858241406e-03 1.6262731261194312e-02 0.0000000000000000e+00  -1.1011720740792709e-02 1.5035893747328310e-02 0.0000000000000000e+00  -1.3693791319313897e-02 1.3461079125790830e-02 0.0000000000000000e+00  -1.6056651253509302e-02 1.1589903476118674e-02 0.0000000000000000e+00  -1.8067384510972992e-02 9.4628361555403693e-03 0.0000000000000000e+00  -1.9701180216453684e-02 7.1121857886053781e-03 0.0000000000000000e+00  -2.0935287704724651e-02 4.5613582483127147e-03 0.0000000000000000e+00  -2.1742700610811839e-02 1.8266506465818607e-03 0.0000000000000000e+00  -2.2086270134479752e-02 -1.0779071952161524e-03 0.0000000000000000e+00  -2.1914592510481709e-02 -4.1324617657109135e-03 0.0000000000000000e+00  -2.1160741819664809e-02 -7.2994133082156668e-03 0.0000000000000000e+00  -1.9748115438356167e-02 -1.0507703186414729e-02 0.0000000000000000e+00  -1.7605727642538788e-02 -1.3638151387605484e-02 0.0000000000000000e+00  -1.4698315287076354e-02 -1.6517446956113634e-02 0.0000000000000000e+00  -1.1056171119016986e-02 -1.8917898130458702e-02 0.0000000000000000e+00  -6.8265035640825197e-03 -2.0427570533960708e-02 0.0000000000000000e+00  -2.4595185273712915e-03 -1.8211919536251221e-02 0.0000000000000000e+00  0.0000000000000000e+00 0.0000000000000000e+00 0.0000000000000000e+00  0.0000000000000000e+00 0.0000000000000000e+00 0.0000000000000000e+00  -2.0090015297037972e-03 1.8053089566908754e-02 0.0000000000000000e+00  -5.6164008864139853e-03 2.0420404694609710e-02 0.0000000000000000e+00  -9.2203035117467257e-03 1.9539450775013095e-02 0.0000000000000000e+00  -1.2570065542000656e-02 1.8043438469993761e-02 0.0000000000000000e+00  -1.5592380112090104e-02 1.6144559735940839e-02 0.0000000000000000e+00  -1.8244994337486723e-02 1.3913743377568618e-02 0.0000000000000000e+00  -2.0504371346113093e-02 1.1404256901368240e-02 0.0000000000000000e+00  -2.2358008311650353e-02 8.6541705945915662e-03 0.0000000000000000e+00  -2.3795253383559468e-02 5.6850132945665622e-03 0.0000000000000000e+00  -2.4797756521724303e-02 2.5034878628512744e-03 0.0000000000000000e+00  -2.5330604702542225e-02 -8.9383971291493553e-04 0.0000000000000000e+00  -2.5332529615949610e-02 -4.5105683585108568e-03 0.0000000000000000e+00  -2.4708033100193441e-02 -8.3313588725011430e-03 0.0000000000000000e+00  -2.3331281162611999e-02 -1.2296058229336691e-02 0.0000000000000000e+00  -2.1063007458038106e-02 -1.6273709735704248e-02 0.0000000000000000e+00  -1.7796486111976980e-02 -2.0039052411363212e-02 0.0000000000000000e+00  -1.3515623175944064e-02 -2.3258628526924563e-02 0.0000000000000000e+00  -8.3906354380368156e-03 -2.5335565375224592e-02 0.0000000000000000e+00  -3.0275300177883295e-03 -2.2660657413245456e-02 0.0000000000000000e+00  0.0000000000000000e+00 0.0000000000000000e+00 0.0000000000000000e+00  0.0000000000000000e+00 0.0000000000000000e+00 0.0000000000000000e+00  -2.3362372074568739e-03 2.1604037296422601e-02 0.0000000000000000e+00  -6.5122364659347155e-03 2.4378443730060931e-02 0.0000000000000000e+00  -1.0650496245083069e-02 2.3275221398276813e-02 0.0000000000000000e+00  -1.4460237901271242e-02 2.1444879807530962e-02 0.0000000000000000e+00  -1.7863965695415891e-02 1.9157950732007538e-02 0.0000000000000000e+00  -2.0828402430509308e-02 1.6513673462659261e-02 0.0000000000000000e+00  -2.3347445985575203e-02 1.3583371957077204e-02 0.0000000000000000e+00  -2.5429979753874715e-02 1.0412616578728728e-02 0.0000000000000000e+00  -2.7086622421118114e-02 7.0196132112982429e-03 0.0000000000000000e+00  -2.8318060539506668e-02 3.3957716341841060e-03 0.0000000000000000e+00  -2.9101646584776424e-02 -4.8999372975533969e-04 0.0000000000000000e+00  -2.9369246542758992e-02 -4.6767721101176694e-03 0.0000000000000000e+00  -2.9000192918791166e-02 -9.1930711315465017e-03 0.0000000000000000e+00  -2.7807490643184489e-02 -1.4035307589205438e-02 0.0000000000000000e+00  -2.5537993670823864e-02 -1.9099629448332600e-02 0.0000000000000000e+00  -2.1939363330092811e-02 -2.4093855016979852e-02 0.0000000000000000e+00  -1.6879274806825651e-02 -2.8499444665234193e-02 0.0000000000000000e+00  -1.0547386177405327e-02 -3.1412156505496273e-02 0.0000000000000000e+00  -3.8083560151907403e-03 -2.8196727486568797e-02 0.0000000000000000e+00  0.0000000000000000e+00 0.0000000000000000e+00 0.0000000000000000e+00  0.0000000000000000e+00 0.0000000000000000e+00 0.0000000000000000e+00  -2.7548564796283292e-03 2.5755110538392082e-02 0.0000000000000000e+00  -7.6412947100192342e-03 2.8962667071962635e-02 0.0000000000000000e+00  -1.2424348175605410e-02 2.7554223352520481e-02 0.0000000000000000e+00  -1.6763103142527023e-02 2.5291502844532771e-02 0.0000000000000000e+00  -2.0579607537399472e-02 2.2524948634443268e-02 0.0000000000000000e+00  -2.3859721658618268e-02 1.9395116477845947e-02 0.0000000000000000e+00  -2.6627463063046284e-02 1.5998098564842023e-02 0.0000000000000000e+00  -2.8925619715104461e-02 1.2388946856959173e-02 0.0000000000000000e+00  -3.0798980257072329e-02 8.5808782943376186e-03 0.0000000000000000e+00  -3.2282626897189408e-02 4.5455108651810258e-03 0.0000000000000000e+00  -3.3374663710753760e-02 2.2091579776125955e-04 0.0000000000000000e+00  -3.4021249411716997e-02 -4.4914391157209735e-03 0.0000000000000000e+00  -3.4118015990499087e-02 -9.7368171645960695e-03 0.0000000000000000e+00  -3.3371685419202914e-02 -1.5626850969219893e-02 0.0000000000000000e+00  -3.1358298407737184e-02 -2.2054026044267205e-02 0.0000000000000000e+00  -2.7568029088343684e-02 -2.8688926412863761e-02 0.0000000000000000e+00  -2.1603845818336971e-02 -3.4828210419844928e-02 0.0000000000000000e+00  -1.3617804768494437e-02 -3.9072787994931253e-02 0.0000000000000000e+00  -4.9212460930970073e-03 -3.5269404965454644e-02 0.0000000000000000e+00  0.0000000000000000e+00 0.0000000000000000e+00 0.0000000000000000e+00  0.0000000000000000e+00 0.0000000000000000e+00 0.0000000000000000e+00  -3.3072161441293044e-03 3.0676547618387406e-02 0.0000000000000000e+00  -9.0983835366562314e-03 3.4321217935586394e-02 0.0000000000000000e+00  -1.4662592921741083e-02 3.2472174245518633e-02 0.0000000000000000e+00  -1.9598385220659029e-02 2.9626872212767382e-02 0.0000000000000000e+00  -2.3838302784012767e-02 2.6248555292756007e-02 0.0000000000000000e+00  -2.7406634068138969e-02 2.2536417477643279e-02 0.0000000000000000e+00  -3.0377195937062586e-02 1.8617715031569608e-02 0.0000000000000000e+00  -3.2843181781988799e-02 1.4557114731052350e-02 0.0000000000000000e+00  -3.4899837308100611e-02 1.0360982127340726e-02 0.0000000000000000e+00  -3.6627715701493355e-02 5.9825966967971475e-03 0.0000000000000000e+00  -3.8058241799768557e-02 1.3243011053797654e-03 0.0000000000000000e+00  -3.9248113489074941e-02 -3.8173148396153616e-03 0.0000000000000000e+00  -4.0061856917085206e-02 -9.6579936165956358e-03 0.0000000000000000e+00  -4.0080250939507643e-02 -1.6344912104463663e-02 0.0000000000000000e+00  -3.8935727198941138e-02 -2.4181518572692417e-02 0.0000000000000000e+00  -3.5475531015598541e-02 -3.3363289690436719e-02 0.0000000000000000e+00  -2.8598510852998530e-02 -4.2577739291228850e-02 0.0000000000000000e+00  -1.8175573973672032e-02 -4.9213484776634675e-02 0.0000000000000000e+00  -6.5276716612477029e-03 -4.4677540869544723e-02 0.0000000000000000e+00  0.0000000000000000e+00 0.0000000000000000e+00 0.0000000000000000e+00  0.0000000000000000e+00 0.0000000000000000e+00 0.0000000000000000e+00  -4.0687217989600283e-03 3.6617671265903123e-02 0.0000000000000000e+00  -1.1042786689436802e-02 4.0651245771602680e-02 0.0000000000000000e+00  -1.7557336597514590e-02 3.8134751515654444e-02 0.0000000000000000e+00  -2.3144711954981009e-02 3.4473896320398684e-02 0.0000000000000000e+00  -2.7777114338582303e-02 3.0294276789617953e-02 0.0000000000000000e+00  -3.1554459189426731e-