<?xml version="1.0"?>
<VTKFile type="UnstructuredGrid"  version="0.1"  >
<UnstructuredGrid>
<Piece  NumberOfPoints="441" NumberOfCells="800">
<Points>
<DataArray  type="Float64"  NumberOfComponents="3"  format="ascii">0 0 0  0.05 0 0  0.1 0 0  0.15 0 0  0.2 0 0  0.25 0 0  0.3 0 0  0.35 0 0  0.4 0 0  0.45 0 0  0.5 0 0  0.55 0 0  0.6 0 0  0.65 0 0  0.7 0 0  0.75 0 0  0.8 0 0  0.85 0 0  0.9 0 0  0.95 0 0  1 0 0  0 0.05 0  0.05 0.05 0  0.1 0.05 0  0.15 0.05 0  0.2 0.05 0  0.25 0.05 0  0.3 0.05 0  0.35 0.05 0  0.4 0.05 0  0.45 0.05 0  0.5 0.05 0  0.55 0.05 0  0.6 0.05 0  0.65 0.05 0  0.7 0.05 0  0.75 0.05 0  0.8 0.05 0  0.85 0.05 0  0.9 0.05 0  0.95 0.05 0  1 0.05 0  0 0.1 0  0.05 0.1 0  0.1 0.1 0  0.15 0.1 0  0.2 0.1 0  0.25 0.1 0  0.3 0.1 0  0.35 0.1 0  0.4 0.1 0  0.45 0.1 0  0.5 0.1 0  0.55 0.1 0  0.6 0.1 0  0.65 0.1 0  0.7 0.1 0  0.75 0.1 0  0.8 0.1 0  0.85 0.1 0  0.9 0.1 0  0.95 0.1 0  1 0.1 0  0 0.15 0  0.05 0.15 0  0.1 0.15 0  0.15 0.15 0  0.2 0.15 0  0.25 0.15 0  0.3 0.15 0  0.35 0.15 0  0.4 0.15 0  0.45 0.15 0  0.5 0.15 0  0.55 0.15 0  0.6 0.15 0  0.65 0.15 0  0.7 0.15 0  0.75 0.15 0  0.8 0.15 0  0.85 0.15 0  0.9 0.15 0  0.95 0.15 0  1 0.15 0  0 0.2 0  0.05 0.2 0  0.1 0.2 0  0.15 0.2 0  0.2 0.2 0  0.25 0.2 0  0.3 0.2 0  0.35 0.2 0  0.4 0.2 0  0.45 0.2 0  0.5 0.2 0  0.55 0.2 0  0.6 0.2 0  0.65 0.2 0  0.7 0.2 0  0.75 0.2 0  0.8 0.2 0  0.85 0.2 0  0.9 0.2 0  0.95 0.2 0  1 0.2 0  0 0.25 0  0.05 0.25 0  0.1 0.25 0  0.15 0.25 0  0.2 0.25 0  0.25 0.25 0  0.3 0.25 0  0.35 0.25 0  0.4 0.25 0  0.45 0.25 0  0.5 0.25 0  0.55 0.25 0  0.6 0.25 0  0.65 0.25 0  0.7 0.25 0  0.75 0.25 0  0.8 0.25 0  0.85 0.25 0  0.9 0.25 0  0.95 0.25 0  1 0.25 0  0 0.3 0  0.05 0.3 0  0.1 0.3 0  0.15 0.3 0  0.2 0.3 0  0.25 0.3 0  0.3 0.3 0  0.35 0.3 0  0.4 0.3 0  0.45 0.3 0  0.5 0.3 0  0.55 0.3 0  0.6 0.3 0  0.65 0.3 0  0.7 0.3 0  0.75 0.3 0  0.8 0.3 0  0.85 0.3 0  0.9 0.3 0  0.95 0.3 0  1 0.3 0  0 0.35 0  0.05 0.35 0  0.1 0.35 0  0.15 0.35 0  0.2 0.35 0  0.25 0.35 0  0.3 0.35 0  0.35 0.35 0  0.4 0.35 0  0.45 0.35 0  0.5 0.35 0  0.55 0.35 0  0.6 0.35 0  0.65 0.35 0  0.7 0.35 0  0.75 0.35 0  0.8 0.35 0  0.85 0.35 0  0.9 0.35 0  0.95 0.35 0  1 0.35 0  0 0.4 0  0.05 0.4 0  0.1 0.4 0  0.15 0.4 0  0.2 0.4 0  0.25 0.4 0  0.3 0.4 0  0.35 0.4 0  0.4 0.4 0  0.45 0.4 0  0.5 0.4 0  0.55 0.4 0  0.6 0.4 0  0.65 0.4 0  0.7 0.4 0  0.75 0.4 0  0.8 0.4 0  0.85 0.4 0  0.9 0.4 0  0.95 0.4 0  1 0.4 0  0 0.45 0  0.05 0.45 0  0.1 0.45 0  0.15 0.45 0  0.2 0.45 0  0.25 0.45 0  0.3 0.45 0  0.35 0.45 0  0.4 0.45 0  0.45 0.45 0  0.5 0.45 0  0.55 0.45 0  0.6 0.45 0  0.65 0.45 0  0.7 0.45 0  0.75 0.45 0  0.8 0.45 0  0.85 0.45 0  0.9 0.45 0  0.95 0.45 0  1 0.45 0  0 0.5 0  0.05 0.5 0  0.1 0.5 0  0.15 0.5 0  0.2 0.5 0  0.25 0.5 0  0.3 0.5 0  0.35 0.5 0  0.4 0.5 0  0.45 0.5 0  0.5 0.5 0  0.55 0.5 0  0.6 0.5 0  0.65 0.5 0  0.7 0.5 0  0.75 0.5 0  0.8 0.5 0  0.85 0.5 0  0.9 0.5 0  0.95 0.5 0  1 0.5 0  0 0.55 0  0.05 0.55 0  0.1 0.55 0  0.15 0.55 0  0.2 0.55 0  0.25 0.55 0  0.3 0.55 0  0.35 0.55 0  0.4 0.55 0  0.45 0.55 0  0.5 0.55 0  0.55 0.55 0  0.6 0.55 0  0.65 0.55 0  0.7 0.55 0  0.75 0.55 0  0.8 0.55 0  0.85 0.55 0  0.9 0.55 0  0.95 0.55 0  1 0.55 0  0 0.6 0  0.05 0.6 0  0.1 0.6 0  0.15 0.6 0  0.2 0.6 0  0.25 0.6 0  0.3 0.6 0  0.35 0.6 0  0.4 0.6 0  0.45 0.6 0  0.5 0.6 0  0.55 0.6 0  0.6 0.6 0  0.65 0.6 0  0.7 0.6 0  0.75 0.6 0  0.8 0.6 0  0.85 0.6 0  0.9 0.6 0  0.95 0.6 0  1 0.6 0  0 0.65 0  0.05 0.65 0  0.1 0.65 0  0.15 0.65 0  0.2 0.65 0  0.25 0.65 0  0.3 0.65 0  0.35 0.65 0  0.4 0.65 0  0.45 0.65 0  0.5 0.65 0  0.55 0.65 0  0.6 0.65 0  0.65 0.65 0  0.7 0.65 0  0.75 0.65 0  0.8 0.65 0  0.85 0.65 0  0.9 0.65 0  0.95 0.65 0  1 0.65 0  0 0.7 0  0.05 0.7 0  0.1 0.7 0  0.15 0.7 0  0.2 0.7 0  0.25 0.7 0  0.3 0.7 0  0.35 0.7 0  0.4 0.7 0  0.45 0.7 0  0.5 0.7 0  0.55 0.7 0  0.6 0.7 0  0.65 0.7 0  0.7 0.7 0  0.75 0.7 0  0.8 0.7 0  0.85 0.7 0  0.9 0.7 0  0.95 0.7 0  1 0.7 0  0 0.75 0  0.05 0.75 0  0.1 0.75 0  0.15 0.75 0  0.2 0.75 0  0.25 0.75 0  0.3 0.75 0  0.35 0.75 0  0.4 0.75 0  0.45 0.75 0  0.5 0.75 0  0.55 0.75 0  0.6 0.75 0  0.65 0.75 0  0.7 0.75 0  0.75 0.75 0  0.8 0.75 0  0.85 0.75 0  0.9 0.75 0  0.95 0.75 0  1 0.75 0  0 0.8 0  0.05 0.8 0  0.1 0.8 0  0.15 0.8 0  0.2 0.8 0  0.25 0.8 0  0.3 0.8 0  0.35 0.8 0  0.4 0.8 0  0.45 0.8 0  0.5 0.8 0  0.55 0.8 0  0.6 0.8 0  0.65 0.8 0  0.7 0.8 0  0.75 0.8 0  0.8 0.8 0  0.85 0.8 0  0.9 0.8 0  0.95 0.8 0  1 0.8 0  0 0.85 0  0.05 0.85 0  0.1 0.85 0  0.15 0.85 0  0.2 0.85 0  0.25 0.85 0  0.3 0.85 0  0.35 0.85 0  0.4 0.85 0  0.45 0.85 0  0.5 0.85 0  0.55 0.85 0  0.6 0.85 0  0.65 0.85 0  0.7 0.85 0  0.75 0.85 0  0.8 0.85 0  0.85 0.85 0  0.9 0.85 0  0.95 0.85 0  1 0.85 0  0 0.9 0  0.05 0.9 0  0.1 0.9 0  0.15 0.9 0  0.2 0.9 0  0.25 0.9 0  0.3 0.9 0  0.35 0.9 0  0.4 0.9 0  0.45 0.9 0  0.5 0.9 0  0.55 0.9 0  0.6 0.9 0  0.65 0.9 0  0.7 0.9 0  0.75 0.9 0  0.8 0.9 0  0.85 0.9 0  0.9 0.9 0  0.95 0.9 0  1 0.9 0  0 0.95 0  0.05 0.95 0  0.1 0.95 0  0.15 0.95 0  0.2 0.95 0  0.25 0.95 0  0.3 0.95 0  0.35 0.95 0  0.4 0.95 0  0.45 0.95 0  0.5 0.95 0  0.55 0.95 0  0.6 0.95 0  0.65 0.95 0  0.7 0.95 0  0.75 0.95 0  0.8 0.95 0  0.85 0.95 0  0.9 0.95 0  0.95 0.95 0  1 0.95 0  0 1 0  0.05 1 0  0.1 1 0  0.15 1 0  0.2 1 0  0.25 1 0  0.3 1 0  0.35 1 0  0.4 1 0  0.45 1 0  0.5 1 0  0.55 1 0  0.6 1 0  0.65 1 0  0.7 1 0  0.75 1 0  0.8 1 0  0.85 1 0  0.9 1 0  0.95 1 0  1 1 0  </DataArray>
</Points>
<Cells>
[...]
<PointData  Vectors="f_137"> 
<DataArray  type="Float64"  Name="f_137"  NumberOfComponents="3" format="ascii">0.0000000000000000e+00 0.0000000000000000e+00 0.0000000000000000e+00  0.0000000000000000e+00 0.0000000000000000e+00 0.0000000000000000e+00  0.0000000000000000e+00 0.0000000000000000e+00 0.0000000000000000e+00  0.0000000000000000e+00 0.0000000000000000e+00 0.0000000000000000e+00  0.0000000000000000e+00 0.0000000000000000e+00 0.0000000000000000e+00  0.0000000000000000e+00 0.0000000000000000e+00 0.0000000000000000e+00  0.0000000000000000e+00 0.0000000000000000e+00 0.0000000000000000e+00  0.0000000000000000e+00 0.0000000000000000e+00 0.0000000000000000e+00  0.0000000000000000e+00 0.0000000000000000e+00 0.0000000000000000e+00  0.0000000000000000e+00 0.0000000000000000e+00 0.0000000000000000e+00  0.0000000000000000e+00 0.0000000000000000e+00 0.0000000000000000e+00  0.0000000000000000e+00 0.0000000000000000e+00 0.0000000000000000e+00  0.0000000000000000e+00 0.0000000000000000e+00 0.0000000000000000e+00  0.0000000000000000e+00 0.0000000000000000e+00 0.0000000000000000e+00  0.0000000000000000e+00 0.0000000000000000e+00 0.0000000000000000e+00  0.0000000000000000e+00 0.0000000000000000e+00 0.0000000000000000e+00  0.0000000000000000e+00 0.0000000000000000e+00 0.0000000000000000e+00  0.0000000000000000e+00 0.0000000000000000e+00 0.0000000000000000e+00  0.0000000000000000e+00 0.0000000000000000e+00 0.0000000000000000e+00  0.0000000000000000e+00 0.0000000000000000e+00 0.0000000000000000e+00  0.0000000000000000e+00 0.0000000000000000e+00 0.0000000000000000e+00  0.0000000000000000e+00 0.0000000000000000e+00 0.0000000000000000e+00  -8.0761463611125493e-04 8.0002925568145383e-04 0.0000000000000000e+00  -2.3126598316326155e-03 9.5318524005688545e-04 0.0000000000000000e+00  -3.8620071261420410e-03 9.1238566927118495e-04 0.0000000000000000e+00  -5.3162750200075491e-03 8.4657967109150059e-04 0.0000000000000000e+00  -6.6425054104097773e-03 7.6017317454828365e-04 0.0000000000000000e+00  -7.8059304700970776e-03 6.5435149399534383e-04 0.0000000000000000e+00  -8.7762014025075247e-03 5.3059816089271979e-04 0.0000000000000000e+00  -9.5259822647159476e-03 3.9069745002653407e-04 0.0000000000000000e+00  -1.0031612379008674e-02 2.3684095695782859e-04 0.0000000000000000e+00  -1.0273742318164598e-02 7.1713019150096828e-05 0.0000000000000000e+00  -1.0238120669402303e-02 -1.0135424996852386e-04 0.0000000000000000e+00  -9.9166196831744925e-03 -2.7822612131193187e-04 0.0000000000000000e+00  -9.3084458011071167e-03 -4.5386025115351427e-04 0.0000000000000000e+00  -8.4214750922929123e-03 -6.2232823426134536e-04 0.0000000000000000e+00  -7.2733266443528758e-03 -7.7699448476021508e-04 0.0000000000000000e+00  -5.8922850605462509e-03 -9.1091088891526802e-04 0.0000000000000000e+00  -4.3172192490548173e-03 -1.0163559699081681e-03 0.0000000000000000e+00  -2.6059620400863152e-03 -1.0726211951953876e-03 0.0000000000000000e+00  -9.0392853037714880e-04 -9.0452270008918654e-04 0.0000000000000000e+00  0.0000000000000000e+00 0.0000000000000000e+00 0.0000000000000000e+00  0.0000000000000000e+00 0.0000000000000000e+00 0.0000000000000000e+00  -1.0153665174774318e-03 2.3414680886421177e-03 0.0000000000000000e+00  -2.8370211661202386e-03 2.7188023057646560e-03 0.0000000000000000e+00  -4.6850668733933896e-03 2.6126355142136533e-03 0.0000000000000000e+00  -6.4234879359105160e-03 2.4196907902268297e-03 0.0000000000000000e+00  -8.0045473194591266e-03 2.1662203180303520e-03 0.0000000000000000e+00  -9.3875948357882710e-03 1.8576301051313703e-03 0.0000000000000000e+00  -1.0537072214637457e-02 1.4989340123013237e-03 0.0000000000000000e+00  -1.1421464827974185e-02 1.0960071655414776e-03 0.0000000000000000e+00  -1.2013982241124384e-02 6.5560450456414324e-04 0.0000000000000000e+00  -1.2292978405035371e-02 1.8563299395687875e-04 0.0000000000000000e+00  -1.2242682111709166e-02 -3.0444558671276158e-04 0.0000000000000000e+00  -1.1854236396677051e-02 -8.0318492676750635e-04 0.0000000000000000e+00  -1.1127034936335658e-02 -1.2968386218753429e-03 0.0000000000000000e+00  -1.0070313710278056e-02 -1.7693346718917076e-03 0.0000000000000000e+00  -8.7044850330896591e-03 -2.2027114931485580e-03 0.0000000000000000e+00  -7.0627752398446549e-03 -2.5779706267483079e-03 0.0000000000000000e+00  -5.1911122575113433e-03 -2.8740593477044967e-03 0.0000000000000000e+00  -3.1556531514891745e-03 -3.0403109225023732e-03 0.0000000000000000e+00  -1.1279393754426569e-03 -2.6442687542806050e-03 0.0000000000000000e+00  0.0000000000000000e+00 0.0000000000000000e+00 0.0000000000000000e+00  0.0000000000000000e+00 0.0000000000000000e+00 0.0000000000000000e+00  -1.0666649168047729e-03 4.0486074994847861e-03 0.0000000000000000e+00  -2.9970632383943133e-03 4.6511373753413748e-03 0.0000000000000000e+00  -4.9508382978873484e-03 4.4670678065547595e-03 0.0000000000000000e+00  -6.7896842387487541e-03 4.1347891833676733e-03 0.0000000000000000e+00  -8.4630051556916323e-03 3.6985609471517924e-03 0.0000000000000000e+00  -9.9295081761060517e-03 3.1685323804575278e-03 0.0000000000000000e+00  -1.1152189649073115e-02 2.5541129809744352e-03 0.0000000000000000e+00  -1.2098431320192442e-02 1.8656637238951492e-03 0.0000000000000000e+00  -1.2740127184253939e-02 1.1146972439575434e-03 0.0000000000000000e+00  -1.3053911804059952e-02 3.1438316293645052e-04 0.0000000000000000e+00  -1.3021752275387197e-02 -5.1971372855607668e-04 0.0000000000000000e+00  -1.2632003581270741e-02 -1.3687863051015741e-03 0.0000000000000000e+00  -1.1880988183532358e-02 -2.2100802264366295e-03 0.0000000000000000e+00  -1.0775096108977002e-02 -3.0166579639975479e-03 0.0000000000000000e+00  -9.3328338888245196e-03 -3.7579521438875054e-03 0.0000000000000000e+00  -7.5873123750975950e-03 -4.4011287663537277e-03 0.0000000000000000e+00  -5.5862696154408576e-03 -4.9097002848279385e-03 0.0000000000000000e+00  -3.4006332064540961e-03 -5.2011507502290246e-03 0.0000000000000000e+00  -1.2168074866933077e-03 -4.5566978316299205e-03 0.0000000000000000e+00  0.0000000000000000e+00 0.0000000000000000e+00 0.0000000000000000e+00  0.0000000000000000e+00 0.0000000000000000e+00 0.0000000000000000e+00  -1.1395159955285119e-03 5.8542000873791598e-03 0.0000000000000000e+00  -3.2044834265970161e-03 6.7027126830064357e-03 0.0000000000000000e+00  -5.2956394309000392e-03 6.4367817760739932e-03 0.0000000000000000e+00  -7.2642430796976444e-03 5.9577423405763252e-03 0.0000000000000000e+00  -9.0574359642852410e-03 5.3297313637079430e-03 0.0000000000000000e+00  -1.0632717853770674e-02 4.5681810221321435e-03 0.0000000000000000e+00  -1.1951950288471640e-02 3.6869412816506806e-03 0.0000000000000000e+00  -1.2981511439679912e-02 2.7006831759305836e-03 0.0000000000000000e+00  -1.3691849778862239e-02 1.6252173443473629e-03 0.0000000000000000e+00  -1.4057364789410215e-02 4.7823343667013007e-04 0.0000000000000000e+00  -1.4056688659555521e-02 -7.1946998331990698e-04 0.0000000000000000e+00  -1.3673692375128679e-02 -1.9424672674689314e-03 0.0000000000000000e+00  -1.2899386027736529e-02 -3.1592767324655265e-03 0.0000000000000000e+00  -1.1734823481730289e-02 -4.3315581898956965e-03 0.0000000000000000e+00  -1.0194320833341427e-02 -5.4145382308351288e-03 0.0000000000000000e+00  -8.3095012539145113e-03 -6.3588868867844595e-03 0.0000000000000000e+00  -6.1302647655465314e-03 -7.1094802105874160e-03 0.0000000000000000e+00  -3.7358216030599074e-03 -7.5466937089160441e-03 0.0000000000000000e+00  -1.3364347674120129e-03 -6.6358215001633691e-03 0.0000000000000000e+00  0.0000000000000000e+00 0.0000000000000000e+00 0.0000000000000000e+00  0.0000000000000000e+00 0.0000000000000000e+00 0.0000000000000000e+00  -1.2407567936132712e-03 7.8050868473745040e-03 0.0000000000000000e+00  -3.4899117765908533e-03 8.9186782040695887e-03 0.0000000000000000e+00  -5.7675634794980592e-03 8.5637400423934310e-03 0.0000000000000000e+00  -7.9115914189311510e-03 7.9270271312941107e-03 0.0000000000000000e+00  -9.8662918582231567e-03 7.0945655150916965e-03 0.0000000000000000e+00  -1.1587501036403084e-02 6.0876602331956884e-03 0.0000000000000000e+00  -1.3036215409519675e-02 4.9248823367980905e-03 0.0000000000000000e+00  -1.4178114968233273e-02 3.6250612158538371e-03 0.0000000000000000e+00  -1.4982418002754091e-02 2.2075621311408887e-03 0.0000000000000000e+00  -1.5421054433157380e-02 6.9333415715905225e-04 0.0000000000000000e+00  -1.5468351316051147e-02 -8.9316680732556592e-04 0.0000000000000000e+00  -1.5101778311298638e-02 -2.5214153792966583e-03 0.0000000000000000e+00  -1.4304139543526778e-02 -4.1521096789703740e-03 0.0000000000000000e+00  -1.3067581151373887e-02 -5.7351533666032033e-03 0.0000000000000000e+00  -1.1398676684099954e-02 -7.2094065664332230e-03 0.0000000000000000e+00  -9.3251798200372823e-03 -8.5049359591399289e-03 0.0000000000000000e+00  -6.8990928400720344e-03 -9.5421077792316004e-03 0.0000000000000000e+00  -4.2115980142931790e-03 -1.0154910782707867e-02 0.0000000000000000e+00  -1.5071972813107504e-03 -8.9509899712933872e-03 0.0000000000000000e+00  0.0000000000000000e+00 0.0000000000000000e+00 0.0000000000000000e+00  0.0000000000000000e+00 0.0000000000000000e+00 0.0000000000000000e+00  -1.3730718485385593e-03 9.9482840207675352e-03 0.0000000000000000e+00  -3.8619881381439908e-03 1.1351480808495639e-02 0.0000000000000000e+00  -6.3802240310703055e-03 1.0898003909812416e-02 0.0000000000000000e+00  -8.7491519606454835e-03 1.0088506493536100e-02 0.0000000000000000e+00  -1.0909414238212303e-02 9.0340430598072046e-03 0.0000000000000000e+00  -1.2815275617676541e-02 7.7632338609619446e-03 0.0000000000000000e+00  -1.4427610402101323e-02 6.3001050271213220e-03 0.0000000000000000e+00  -1.5712434261975630e-02 4.6675258343821351e-03 0.0000000000000000e+00  -1.6638681894093260e-02 2.8873660700929863e-03 0.0000000000000000e+00  -1.7176200416499417e-02 9.8187850935306888e-04 0.0000000000000000e+00  -1.7294352311974081e-02 -1.0234736163020118e-03 0.0000000000000000e+00  -1.6962031875577294e-02 -3.0959041495270305e-03 0.0000000000000000e+00  -1.6149884177733734e-02 -5.1904724742789458e-03 0.0000000000000000e+00  -1.4835636533194705e-02 -7.2457371548307328e-03 0.0000000000000000e+00  -1.3011966567653580e-02 -9.1816977846621468e-03 0.0000000000000000e+00  -1.0697796767696012e-02 -1.0901743458710757e-02 0.0000000000000000e+00  -7.9455126634297400e-03 -1.2292215499930719e-02 0.0000000000000000e+00  -4.8621652410864094e-03 -1.3126162401658816e-02 0.0000000000000000e+00  -1.7415607678010667e-03 -1.1595048494370618e-02 0.0000000000000000e+00  0.0000000000000000e+00 0.0000000000000000e+00 0.0000000000000000e+00  0.0000000000000000e+00 0.0000000000000000e+00 0.0000000000000000e+00  -1.5405628281617294e-03 1.2338166485192287e-02 0.0000000000000000e+00  -4.3314788983391753e-03 1.4060381423601468e-02 0.0000000000000000e+00  -7.1500014237277530e-03 1.3493799635822997e-02 0.0000000000000000e+00  -9.7967835807943777e-03 1.2490066102046220e-02 0.0000000000000000e+00  -1.2208106488536787e-02 1.1189708344349639e-02 0.0000000000000000e+00  -1.4337375820613056e-02 9.6309524654914699e-03 0.0000000000000000e+00  -1.6146976215590629e-02 7.8445960085470924e-03 0.0000000000000000e+00  -1.7605418883432322e-02 5.8576207109041047e-03 0.0000000000000000e+00  -1.8683505647042530e-02 3.6930328555643739e-03 0.0000000000000000e+00  -1.9350521341994057e-02 1.3715190582238058e-03 0.0000000000000000e+00  -1.9570966623466773e-02 -1.0846320879167885e-03 0.0000000000000000e+00  -1.9303025236018324e-02 -3.6453138438543348e-03 0.0000000000000000e+00  -1.8500059564717720e-02 -6.2646113808015966e-03 0.0000000000000000e+00  -1.7117026427024149e-02 -8.8722927938126184e-03 0.0000000000000000e+00  -1.5122050411137931e-02 -1.1367433164052957e-02 0.0000000000000000e+00  -1.2515262309882034e-02 -1.3618079089301096e-02 0.0000000000000000e+00  -9.3443014650045064e-03 -1.5461261702333928e-02 0.0000000000000000e+00  -5.7366250761404589e-03 -1.6585981713943567e-02 0.0000000000000000e+00  -2.0574129221168666e-03 -1.4684822784996127e-02 0.0000000000000000e+00  0.0000000000000000e+00 0.0000000000000000e+00 0.0000000000000000e+00  0.0000000000000000e+00 0.0000000000000000e+00 0.0000000000000000e+00  -1.7494109226329361e-03 1.5037053962546568e-02 0.0000000000000000e+00  -4.9144186677585163e-03 1.7111827954289865e-02 0.0000000000000000e+00  -8.1003402413638900e-03 1.6410417790021940e-02 0.0000000000000000e+00  -1.1081868667225089e-02 1.5182101423492965e-02 0.0000000000000000e+00  -1.3790434373324658e-02 1.3603328175571734e-02 0.0000000000000000e+00  -1.6180136337614323e-02 1.1725698844290455e-02 0.0000000000000000e+00  -1.8217864245068303e-02 9.5890636192545887e-03 0.0000000000000000e+00  -1.9878448371690383e-02 7.2249578317498675e-03 0.0000000000000000e+00  -2.1138549626682553e-02 4.6558723514609594e-03 0.0000000000000000e+00  -2.1970215048464650e-02 1.8970851919154947e-03 0.0000000000000000e+00  -2.2334819397998966e-02 -1.0383805870189666e-03 0.0000000000000000e+00  -2.2178814076777593e-02 -4.1314604319195869e-03 0.0000000000000000e+00  -2.1432322496786005e-02 -7.3447587954319823e-03 0.0000000000000000e+00  -2.0015134093117174e-02 -1.0606142399175325e-02 0.0000000000000000e+00  -1.7852591419718900e-02 -1.3793346268019280e-02 0.0000000000000000e+00  -1.4906917102674314e-02 -1.6727634648065294e-02 0.0000000000000000e+00  -1.1208805585507273e-02 -1.9173281373833104e-02 0.0000000000000000e+00  -6.9104062228540633e-03 -2.0697613129451713e-02 0.0000000000000000e+00  -2.4823071562057467e-03 -1.8374383152812420e-02 0.0000000000000000e+00  0.0000000000000000e+00 0.0000000000000000e+00 0.0000000000000000e+00  0.0000000000000000e+00 0.0000000000000000e+00 0.0000000000000000e+00  -2.0091967713110779e-03 1.8119438943198674e-02 0.0000000000000000e+00  -5.6348242562444572e-03 2.0583012016500039e-02 0.0000000000000000e+00  -9.2653186827524898e-03 1.9713648484518172e-02 0.0000000000000000e+00  -1.2642845154776889e-02 1.8216898780115932e-02 0.0000000000000000e+00  -1.5693876780560289e-02 1.6314740333226965e-02 0.0000000000000000e+00  -1.8376178821266305e-02 1.4078087136003821e-02 0.0000000000000000e+00  -2.0666178171489517e-02 1.1559463704004277e-02 0.0000000000000000e+00  -2.2551196262137741e-02 8.7959770529711431e-03 0.0000000000000000e+00  -2.4020185777249781e-02 5.8079538257168805e-03 0.0000000000000000e+00  -2.5053979278697930e-02 2.6006478869718044e-03 0.0000000000000000e+00  -2.5616293017225983e-02 -8.3113331574148337e-04 0.0000000000000000e+00  -2.5643453119574406e-02 -4.4929523006453642e-03 0.0000000000000000e+00  -2.5035974025668907e-02 -8.3707962719770535e-03 0.0000000000000000e+00  -2.3662442005784854e-02 -1.2403991173318928e-02 0.0000000000000000e+00  -2.1376992066269487e-02 -1.6458152582388877e-02 0.0000000000000000e+00  -1.8067413481868893e-02 -2.0300611952862681e-02 0.0000000000000000e+00  -1.3716677337020318e-02 -2.3585676033084830e-02 0.0000000000000000e+00  -8.5019417800898979e-03 -2.5686796748135111e-02 0.0000000000000000e+00  -3.0581367928902391e-03 -2.2876221523543436e-02 0.0000000000000000e+00  0.0000000000000000e+00 0.0000000000000000e+00 0.0000000000000000e+00  0.0000000000000000e+00 0.0000000000000000e+00 0.0000000000000000e+00  -2.3350948702528119e-03 2.1678437677425246e-02 0.0000000000000000e+00  -6.5295225529931177e-03 2.4566413862609961e-02 0.0000000000000000e+00  -1.0695618526221005e-02 2.3477409591582912e-02 0.0000000000000000e+00  -1.4534727906097914e-02 2.1647504764798209e-02 0.0000000000000000e+00  -1.7969324129931786e-02 1.9358566031611752e-02 0.0000000000000000e+00  -2.0966323484899439e-02 1.6709830815347836e-02 0.0000000000000000e+00  -2.3519787098307550e-02 1.3771776265242014e-02 0.0000000000000000e+00  -2.5638683297214072e-02 1.0588865835663935e-02 0.0000000000000000e+00  -2.7333508924685598e-02 7.1778992757869651e-03 0.0000000000000000e+00  -2.8604611655937945e-02 3.5283212226975306e-03 0.0000000000000000e+00  -2.9428674744807246e-02 -3.9373048375296272e-04 0.0000000000000000e+00  -2.9734739213536313e-02 -4.6304124932948264e-03 0.0000000000000000e+00  -2.9397799434921615e-02 -9.2129892453629830e-03 0.0000000000000000e+00  -2.8222914482197894e-02 -1.4141075087556354e-02 0.0000000000000000e+00  -2.5945508461573653e-02 -1.9309576760105765e-02 0.0000000000000000e+00  -2.2301250400730822e-02 -2.4416151361798467e-02 0.0000000000000000e+00  -1.7152333911651552e-02 -2.8921358748430732e-02 0.0000000000000000e+00  -1.0698403718039408e-02 -3.1874405281318671e-02 0.0000000000000000e+00  -3.8495006685638389e-03 -2.8484212194418240e-02 0.0000000000000000e+00  0.0000000000000000e+00 0.0000000000000000e+00 0.0000000000000000e+00  0.0000000000000000e+00 0.0000000000000000e+00 0.0000000000000000e+00  -2.7519592462043000e-03 2.5836411749795091e-02 0.0000000000000000e+00  -7.6566350706131301e-03 2.9176838608518142e-02 0.0000000000000000e+00  -1.2468434694744972e-02 2.7785623205135990e-02 0.0000000000000000e+00  -1.6837836441999848e-02 2.5525001855514751e-02 0.0000000000000000e+00  -2.0687111678513368e-02 2.2758384424082054e-02 0.0000000000000000e+00  -2.4002502604327278e-02 1.9626336767045092e-02 0.0000000000000000e+00  -2.6808401175173264e-02 1.6224034044515324e-02 0.0000000000000000e+00  -2.9147923126710992e-02 1.2605397682086046e-02 0.0000000000000000e+00  -3.1066120284020893e-02 8.7821814909423580e-03 0.0000000000000000e+00  -3.2598996210979524e-02 4.7235609444281693e-03 0.0000000000000000e+00  -3.3744289903346145e-02 3.6460910396869244e-04 0.0000000000000000e+00  -3.4446122580053598e-02 -4.3981289533871456e-03 0.0000000000000000e+00  -3.4599843256154408e-02 -9.7192803396330754e-03 0.0000000000000000e+00  -3.3897167717373104e-02 -1.5719342715198037e-02 0.0000000000000000e+00  -3.1898234806898247e-02 -2.2287187643653936e-02 0.0000000000000000e+00  -2.8067371765219624e-02 -2.9088055854169771e-02 0.0000000000000000e+00  -2.1987477772453905e-02 -3.5384025514312127e-02 0.0000000000000000e+00  -1.3825622699756145e-02 -3.9691808023057017e-02 0.0000000000000000e+00  -4.9751661208849779e-03 -3.5650582292024641e-02 0.0000000000000000e+00  0.0000000000000000e+00 0.0000000000000000e+00 0.0000000000000000e+00  0.0000000000000000e+00 0.0000000000000000e+00 0.0000000000000000e+00  -3.3021107671041411e-03 3.0763075297701972e-02 0.0000000000000000e+00  -9.1107889363824090e-03 3.4562001550255191e-02 0.0000000000000000e+00  -1.4704097587973001e-02 3.2733536015595789e-02 0.0000000000000000e+00  -1.9671267221036851e-02 2.9892557800333276e-02 0.0000000000000000e+00  -2.3945421114448886e-02 2.6516897832837685e-02 0.0000000000000000e+00  -2.7551404178876811e-02 2.2805723100922080e-02 0.0000000000000000e+00  -3.0563536210620197e-02 1.8885327961299679e-02 0.0000000000000000e+00  -3.3075416228397748e-02 1.4819372872536953e-02 0.0000000000000000e+00  -3.5183247508333439e-02 1.0612930556146472e-02 0.0000000000000000e+00  -3.6970028711951222e-02 6.2171552993570689e-03 0.0000000000000000e+00  -3.8464839626831872e-02 1.5322788875652697e-03 0.0000000000000000e+00  -3.9735195330567998e-02 -3.6550064679005800e-03 0.0000000000000000e+00  -4.0636813888778177e-02 -9.5708077831500021e-03 0.0000000000000000e+00  -4.0738440167753423e-02 -1.6370013291732842e-02 0.0000000000000000e+00  -3.9668622685990924e-02 -2.4392274417513023e-02 0.0000000000000000e+00  -3.6190457764912379e-02 -3.3838710032571377e-02 0.0000000000000000e+00  -2.9160592828703709e-02 -4.3297107655406196e-02 0.0000000000000000e+00  -1.8469223923555194e-02 -5.0036340200991798e-02 0.0000000000000000e+00  -6.5987405559961940e-03 -4.5182174744493563e-02 0.0000000000000000e+00  0.0000000000000000e+00 0.0000000000000000e+00 0.0000000000000000e+00  0.0000000000000000e+00 0.0000000000000000e+00 0.0000000000000000e+00  -4.0609848959197118e-03 3.6707189878315637e-02 0.0000000000000000e+00  -1.1051122689479598e-02 4.0918369515468921e-02 0.0000000000000000e+00  -1.7594241218994638e-02 3.8426063913833644e-02 0.0000000000000000e+00  -2.3212893708556573e-02 3.4772465505589843e-02 0.0000000000000000e+00  -2.7880397484925556e-02 3.0599158780557360e-02 0.0000000000000000e+00  -3.1697333042456907e-