<?xml version="1.0"?>
<VTKFile type="UnstructuredGrid"  version="0.1"  >
<UnstructuredGrid>
<Piece  NumberOfPoints="441" NumberOfCells="800">
<Points>
<DataArray  type="Float64"  NumberOfComponents="3"  format="ascii">0 0 0  0.05 0 0  0.1 0 0  0.15 0 0  0.2 0 0  0.25 0 0  0.3 0 0  0.35 0 0  0.4 0 0  0.45 0 0  0.5 0 0  0.55 0 0  0.6 0 0  0.65 0 0  0.7 0 0  0.75 0 0  0.8 0 0  0.85 0 0  0.9 0 0  0.95 0 0  1 0 0  0 0.05 0  0.05 0.05 0  0.1 0.05 0  0.15 0.05 0  0.2 0.05 0  0.25 0.05 0  0.3 0.05 0  0.35 0.05 0  0.4 0.05 0  0.45 0.05 0  0.5 0.05 0  0.55 0.05 0  0.6 0.05 0  0.65 0.05 0  0.7 0.05 0  0.75 0.05 0  0.8 0.05 0  0.85 0.05 0  0.9 0.05 0  0.95 0.05 0  1 0.05 0  0 0.1 0  0.05 0.1 0  0.1 0.1 0  0.15 0.1 0  0.2 0.1 0  0.25 0.1 0  0.3 0.1 0  0.35 0.1 0  0.4 0.1 0  0.45 0.1 0  0.5 0.1 0  0.55 0.1 0  0.6 0.1 0  0.65 0.1 0  0.7 0.1 0  0.75 0.1 0  0.8 0.1 0  0.85 0.1 0  0.9 0.1 0  0.95 0.1 0  1 0.1 0  0 0.15 0  0.05 0.15 0  0.1 0.15 0  0.15 0.15 0  0.2 0.15 0  0.25 0.15 0  0.3 0.15 0  0.35 0.15 0  0.4 0.15 0  0.45 0.15 0  0.5 0.15 0  0.55 0.15 0  0.6 0.15 0  0.65 0.15 0  0.7 0.15 0  0.75 0.15 0  0.8 0.15 0  0.85 0.15 0  0.9 0.15 0  0.95 0.15 0  1 0.15 0  0 0.2 0  0.05 0.2 0  0.1 0.2 0  0.15 0.2 0  0.2 0.2 0  0.25 0.2 0  0.3 0.2 0  0.35 0.2 0  0.4 0.2 0  0.45 0.2 0  0.5 0.2 0  0.55 0.2 0  0.6 0.2 0  0.65 0.2 0  0.7 0.2 0  0.75 0.2 0  0.8 0.2 0  0.85 0.2 0  0.9 0.2 0  0.95 0.2 0  1 0.2 0  0 0.25 0  0.05 0.25 0  0.1 0.25 0  0.15 0.25 0  0.2 0.25 0  0.25 0.25 0  0.3 0.25 0  0.35 0.25 0  0.4 0.25 0  0.45 0.25 0  0.5 0.25 0  0.55 0.25 0  0.6 0.25 0  0.65 0.25 0  0.7 0.25 0  0.75 0.25 0  0.8 0.25 0  0.85 0.25 0  0.9 0.25 0  0.95 0.25 0  1 0.25 0  0 0.3 0  0.05 0.3 0  0.1 0.3 0  0.15 0.3 0  0.2 0.3 0  0.25 0.3 0  0.3 0.3 0  0.35 0.3 0  0.4 0.3 0  0.45 0.3 0  0.5 0.3 0  0.55 0.3 0  0.6 0.3 0  0.65 0.3 0  0.7 0.3 0  0.75 0.3 0  0.8 0.3 0  0.85 0.3 0  0.9 0.3 0  0.95 0.3 0  1 0.3 0  0 0.35 0  0.05 0.35 0  0.1 0.35 0  0.15 0.35 0  0.2 0.35 0  0.25 0.35 0  0.3 0.35 0  0.35 0.35 0  0.4 0.35 0  0.45 0.35 0  0.5 0.35 0  0.55 0.35 0  0.6 0.35 0  0.65 0.35 0  0.7 0.35 0  0.75 0.35 0  0.8 0.35 0  0.85 0.35 0  0.9 0.35 0  0.95 0.35 0  1 0.35 0  0 0.4 0  0.05 0.4 0  0.1 0.4 0  0.15 0.4 0  0.2 0.4 0  0.25 0.4 0  0.3 0.4 0  0.35 0.4 0  0.4 0.4 0  0.45 0.4 0  0.5 0.4 0  0.55 0.4 0  0.6 0.4 0  0.65 0.4 0  0.7 0.4 0  0.75 0.4 0  0.8 0.4 0  0.85 0.4 0  0.9 0.4 0  0.95 0.4 0  1 0.4 0  0 0.45 0  0.05 0.45 0  0.1 0.45 0  0.15 0.45 0  0.2 0.45 0  0.25 0.45 0  0.3 0.45 0  0.35 0.45 0  0.4 0.45 0  0.45 0.45 0  0.5 0.45 0  0.55 0.45 0  0.6 0.45 0  0.65 0.45 0  0.7 0.45 0  0.75 0.45 0  0.8 0.45 0  0.85 0.45 0  0.9 0.45 0  0.95 0.45 0  1 0.45 0  0 0.5 0  0.05 0.5 0  0.1 0.5 0  0.15 0.5 0  0.2 0.5 0  0.25 0.5 0  0.3 0.5 0  0.35 0.5 0  0.4 0.5 0  0.45 0.5 0  0.5 0.5 0  0.55 0.5 0  0.6 0.5 0  0.65 0.5 0  0.7 0.5 0  0.75 0.5 0  0.8 0.5 0  0.85 0.5 0  0.9 0.5 0  0.95 0.5 0  1 0.5 0  0 0.55 0  0.05 0.55 0  0.1 0.55 0  0.15 0.55 0  0.2 0.55 0  0.25 0.55 0  0.3 0.55 0  0.35 0.55 0  0.4 0.55 0  0.45 0.55 0  0.5 0.55 0  0.55 0.55 0  0.6 0.55 0  0.65 0.55 0  0.7 0.55 0  0.75 0.55 0  0.8 0.55 0  0.85 0.55 0  0.9 0.55 0  0.95 0.55 0  1 0.55 0  0 0.6 0  0.05 0.6 0  0.1 0.6 0  0.15 0.6 0  0.2 0.6 0  0.25 0.6 0  0.3 0.6 0  0.35 0.6 0  0.4 0.6 0  0.45 0.6 0  0.5 0.6 0  0.55 0.6 0  0.6 0.6 0  0.65 0.6 0  0.7 0.6 0  0.75 0.6 0  0.8 0.6 0  0.85 0.6 0  0.9 0.6 0  0.95 0.6 0  1 0.6 0  0 0.65 0  0.05 0.65 0  0.1 0.65 0  0.15 0.65 0  0.2 0.65 0  0.25 0.65 0  0.3 0.65 0  0.35 0.65 0  0.4 0.65 0  0.45 0.65 0  0.5 0.65 0  0.55 0.65 0  0.6 0.65 0  0.65 0.65 0  0.7 0.65 0  0.75 0.65 0  0.8 0.65 0  0.85 0.65 0  0.9 0.65 0  0.95 0.65 0  1 0.65 0  0 0.7 0  0.05 0.7 0  0.1 0.7 0  0.15 0.7 0  0.2 0.7 0  0.25 0.7 0  0.3 0.7 0  0.35 0.7 0  0.4 0.7 0  0.45 0.7 0  0.5 0.7 0  0.55 0.7 0  0.6 0.7 0  0.65 0.7 0  0.7 0.7 0  0.75 0.7 0  0.8 0.7 0  0.85 0.7 0  0.9 0.7 0  0.95 0.7 0  1 0.7 0  0 0.75 0  0.05 0.75 0  0.1 0.75 0  0.15 0.75 0  0.2 0.75 0  0.25 0.75 0  0.3 0.75 0  0.35 0.75 0  0.4 0.75 0  0.45 0.75 0  0.5 0.75 0  0.55 0.75 0  0.6 0.75 0  0.65 0.75 0  0.7 0.75 0  0.75 0.75 0  0.8 0.75 0  0.85 0.75 0  0.9 0.75 0  0.95 0.75 0  1 0.75 0  0 0.8 0  0.05 0.8 0  0.1 0.8 0  0.15 0.8 0  0.2 0.8 0  0.25 0.8 0  0.3 0.8 0  0.35 0.8 0  0.4 0.8 0  0.45 0.8 0  0.5 0.8 0  0.55 0.8 0  0.6 0.8 0  0.65 0.8 0  0.7 0.8 0  0.75 0.8 0  0.8 0.8 0  0.85 0.8 0  0.9 0.8 0  0.95 0.8 0  1 0.8 0  0 0.85 0  0.05 0.85 0  0.1 0.85 0  0.15 0.85 0  0.2 0.85 0  0.25 0.85 0  0.3 0.85 0  0.35 0.85 0  0.4 0.85 0  0.45 0.85 0  0.5 0.85 0  0.55 0.85 0  0.6 0.85 0  0.65 0.85 0  0.7 0.85 0  0.75 0.85 0  0.8 0.85 0  0.85 0.85 0  0.9 0.85 0  0.95 0.85 0  1 0.85 0  0 0.9 0  0.05 0.9 0  0.1 0.9 0  0.15 0.9 0  0.2 0.9 0  0.25 0.9 0  0.3 0.9 0  0.35 0.9 0  0.4 0.9 0  0.45 0.9 0  0.5 0.9 0  0.55 0.9 0  0.6 0.9 0  0.65 0.9 0  0.7 0.9 0  0.75 0.9 0  0.8 0.9 0  0.85 0.9 0  0.9 0.9 0  0.95 0.9 0  1 0.9 0  0 0.95 0  0.05 0.95 0  0.1 0.95 0  0.15 0.95 0  0.2 0.95 0  0.25 0.95 0  0.3 0.95 0  0.35 0.95 0  0.4 0.95 0  0.45 0.95 0  0.5 0.95 0  0.55 0.95 0  0.6 0.95 0  0.65 0.95 0  0.7 0.95 0  0.75 0.95 0  0.8 0.95 0  0.85 0.95 0  0.9 0.95 0  0.95 0.95 0  1 0.95 0  0 1 0  0.05 1 0  0.1 1 0  0.15 1 0  0.2 1 0  0.25 1 0  0.3 1 0  0.35 1 0  0.4 1 0  0.45 1 0  0.5 1 0  0.55 1 0  0.6 1 0  0.65 1 0  0.7 1 0  0.75 1 0  0.8 1 0  0.85 1 0  0.9 1 0  0.95 1 0  1 1 0  </DataArray>
</Points>
<Cells>
[...]
<PointData  Vectors="f_137"> 
<DataArray  type="Float64"  Name="f_137"  NumberOfComponents="3" format="ascii">0.0000000000000000e+00 0.0000000000000000e+00 0.0000000000000000e+00  0.0000000000000000e+00 0.0000000000000000e+00 0.0000000000000000e+00  0.0000000000000000e+00 0.0000000000000000e+00 0.0000000000000000e+00  0.0000000000000000e+00 0.0000000000000000e+00 0.0000000000000000e+00  0.0000000000000000e+00 0.0000000000000000e+00 0.0000000000000000e+00  0.0000000000000000e+00 0.0000000000000000e+00 0.0000000000000000e+00  0.0000000000000000e+00 0.0000000000000000e+00 0.0000000000000000e+00  0.0000000000000000e+00 0.0000000000000000e+00 0.0000000000000000e+00  0.0000000000000000e+00 0.0000000000000000e+00 0.0000000000000000e+00  0.0000000000000000e+00 0.0000000000000000e+00 0.0000000000000000e+00  0.0000000000000000e+00 0.0000000000000000e+00 0.0000000000000000e+00  0.0000000000000000e+00 0.0000000000000000e+00 0.0000000000000000e+00  0.0000000000000000e+00 0.0000000000000000e+00 0.0000000000000000e+00  0.0000000000000000e+00 0.0000000000000000e+00 0.0000000000000000e+00  0.0000000000000000e+00 0.0000000000000000e+00 0.0000000000000000e+00  0.0000000000000000e+00 0.0000000000000000e+00 0.0000000000000000e+00  0.0000000000000000e+00 0.0000000000000000e+00 0.0000000000000000e+00  0.0000000000000000e+00 0.0000000000000000e+00 0.0000000000000000e+00  0.0000000000000000e+00 0.0000000000000000e+00 0.0000000000000000e+00  0.0000000000000000e+00 0.0000000000000000e+00 0.0000000000000000e+00  0.0000000000000000e+00 0.0000000000000000e+00 0.0000000000000000e+00  0.0000000000000000e+00 0.0000000000000000e+00 0.0000000000000000e+00  -8.0508972094993196e-04 7.9751254896946906e-04 0.0000000000000000e+00  -2.3140413993776540e-03 9.5569335536960828e-04 0.0000000000000000e+00  -3.8719372368707975e-03 9.1576236689250626e-04 0.0000000000000000e+00  -5.3350907543238263e-03 8.5018625332501099e-04 0.0000000000000000e+00  -6.6702310604783892e-03 7.6399927974948162e-04 0.0000000000000000e+00  -7.8423891369136176e-03 6.5831867017041197e-04 0.0000000000000000e+00  -8.8209724930733355e-03 5.3456858107894497e-04 0.0000000000000000e+00  -9.5783259596019608e-03 3.9447533764363178e-04 0.0000000000000000e+00  -1.0090403722239537e-02 2.4018173663283642e-04 0.0000000000000000e+00  -1.0337425358503400e-02 7.4338197311571072e-05 0.0000000000000000e+00  -1.0304691784303075e-02 -9.9734226383991608e-05 0.0000000000000000e+00  -9.9836521994276645e-03 -2.7788140971998375e-04 0.0000000000000000e+00  -9.3731648997992557e-03 -4.5500554921608908e-04 0.0000000000000000e+00  -8.4808890960049333e-03 -6.2508565275365912e-04 0.0000000000000000e+00  -7.3244108211911185e-03 -7.8136215546747241e-04 0.0000000000000000e+00  -5.9322008338401578e-03 -9.1674242562469934e-04 0.0000000000000000e+00  -4.3435871667679357e-03 -1.0232796864681276e-03 0.0000000000000000e+00  -2.6175015562843935e-03 -1.0794238482242230e-03 0.0000000000000000e+00  -9.0487240682555320e-04 -9.0558976792188097e-04 0.0000000000000000e+00  0.0000000000000000e+00 0.0000000000000000e+00 0.0000000000000000e+00  0.0000000000000000e+00 0.0000000000000000e+00 0.0000000000000000e+00  -1.0180006248764217e-03 2.3430552420787075e-03 0.0000000000000000e+00  -2.8527222118990836e-03 2.7340545200262799e-03 0.0000000000000000e+00  -4.7183295629875631e-03 2.6299736158877265e-03 0.0000000000000000e+00  -6.4741937444018783e-03 2.4369855976695953e-03 0.0000000000000000e+00  -8.0719479923555028e-03 2.1831251556661329e-03 0.0000000000000000e+00  -9.4704930730747615e-03 1.8737481596503662e-03 0.0000000000000000e+00  -1.0633856292394959e-02 1.5137493003882522e-03 0.0000000000000000e+00  -1.1530055935976218e-02 1.1088915156916093e-03 0.0000000000000000e+00  -1.2131800837747347e-02 6.6583896864494830e-04 0.0000000000000000e+00  -1.2416924556303157e-02 1.9244667650199102e-04 0.0000000000000000e+00  -1.2369145328960664e-02 -3.0181616028441161e-04 0.0000000000000000e+00  -1.1979149078202262e-02 -8.0541635399815413e-04 0.0000000000000000e+00  -1.1245981414409412e-02 -1.3044261415886850e-03 0.0000000000000000e+00  -1.0178705072414158e-02 -1.7824937886852931e-03 0.0000000000000000e+00  -8.7977984238834742e-03 -2.2212917939401803e-03 0.0000000000000000e+00  -7.1368325099909098e-03 -2.6013977401849954e-03 0.0000000000000000e+00  -5.2424869950242169e-03 -2.9011422165319384e-03 0.0000000000000000e+00  -3.1823308054441850e-03 -3.0674676059390805e-03 0.0000000000000000e+00  -1.1342978923763543e-03 -2.6557327273527640e-03 0.0000000000000000e+00  0.0000000000000000e+00 0.0000000000000000e+00 0.0000000000000000e+00  0.0000000000000000e+00 0.0000000000000000e+00 0.0000000000000000e+00  -1.0698927825394070e-03 4.0590868955162375e-03 0.0000000000000000e+00  -3.0150218171802945e-03 4.6842745235871220e-03 0.0000000000000000e+00  -4.9879792622648141e-03 4.5031613475496335e-03 0.0000000000000000e+00  -6.8458581921234272e-03 4.1702605391483304e-03 0.0000000000000000e+00  -8.5374104443014295e-03 3.7326037113251105e-03 0.0000000000000000e+00  -1.0020903542791062e-02 3.2003242461043882e-03 0.0000000000000000e+00  -1.1258897896222468e-02 2.5826770939301959e-03 0.0000000000000000e+00  -1.2218282371268867e-02 1.8898687077453860e-03 0.0000000000000000e+00  -1.2870410822225568e-02 1.1332850881010058e-03 0.0000000000000000e+00  -1.3191338397698628e-02 3.2602865521366123e-04 0.0000000000000000e+00  -1.3162440084380594e-02 -5.1630806921949216e-04 0.0000000000000000e+00  -1.2771510995695448e-02 -1.3747583848932466e-03 0.0000000000000000e+00  -1.2014410448629746e-02 -2.2262462328645522e-03 0.0000000000000000e+00  -1.0897246277933030e-02 -3.0433378317934624e-03 0.0000000000000000e+00  -9.4385129580482809e-03 -3.7948110493348374e-03 0.0000000000000000e+00  -7.6716497344209867e-03 -4.4470607962801504e-03 0.0000000000000000e+00  -5.6451977825162421e-03 -4.9625256632747916e-03 0.0000000000000000e+00  -3.4316003171511772e-03 -5.2545528257703341e-03 0.0000000000000000e+00  -1.2244604947761158e-03 -4.5836633839985742e-03 0.0000000000000000e+00  0.0000000000000000e+00 0.0000000000000000e+00 0.0000000000000000e+00  0.0000000000000000e+00 0.0000000000000000e+00 0.0000000000000000e+00  -1.1424809128613776e-03 5.8737991053866281e-03 0.0000000000000000e+00  -3.2225468409523166e-03 6.7545697447456829e-03 0.0000000000000000e+00  -5.3336413522382950e-03 6.4925386624844908e-03 0.0000000000000000e+00  -7.3221477649739125e-03 6.0123538948857642e-03 0.0000000000000000e+00  -9.1345751699590510e-03 5.3819599030072423e-03 0.0000000000000000e+00  -1.0728021295907749e-02 4.6167926531876669e-03 0.0000000000000000e+00  -1.2063917612272712e-02 3.7304929960472522e-03 0.0000000000000000e+00  -1.3108135140689365e-02 2.7375123900160842e-03 0.0000000000000000e+00  -1.3830534187324068e-02 1.6534712882077752e-03 0.0000000000000000e+00  -1.4204846564521451e-02 4.9594265365418089e-04 0.0000000000000000e+00  -1.4208976711729776e-02 -7.1426351660628133e-04 0.0000000000000000e+00  -1.3826053018560632e-02 -1.9515203583207114e-03 0.0000000000000000e+00  -1.3046405073738429e-02 -3.1838980720610053e-03 0.0000000000000000e+00  -1.1870582613069825e-02 -4.3723276959543372e-03 0.0000000000000000e+00  -1.0312708596293260e-02 -5.4710370449035494e-03 0.0000000000000000e+00  -8.4046440632468064e-03 -6.4294889453227009e-03 0.0000000000000000e+00  -6.1971420964555025e-03 -7.1909127772249769e-03 0.0000000000000000e+00  -3.7711968571160063e-03 -7.6295869524028656e-03 0.0000000000000000e+00  -1.3453204036389600e-03 -6.6804644480784169e-03 0.0000000000000000e+00  0.0000000000000000e+00 0.0000000000000000e+00 0.0000000000000000e+00  0.0000000000000000e+00 0.0000000000000000e+00 0.0000000000000000e+00  -1.2434272665962493e-03 7.8337824784529275e-03 0.0000000000000000e+00  -3.5081216996966521e-03 8.9900013208684421e-03 0.0000000000000000e+00  -5.8066457298636609e-03 8.6400841522069702e-03 0.0000000000000000e+00  -7.9716779989751838e-03 8.0018503843143352e-03 0.0000000000000000e+00  -9.9469176562514330e-03 7.1662422692497811e-03 0.0000000000000000e+00  -1.1687838099230118e-02 6.1545712287649577e-03 0.0000000000000000e+00  -1.3155027991921640e-02 4.9851204836121122e-03 0.0000000000000000e+00  -1.4313653848173820e-02 3.6764038437669608e-03 0.0000000000000000e+00  -1.5132297082536515e-02 2.2474899847487878e-03 0.0000000000000000e+00  -1.5582113706846474e-02 7.1910697666513165e-04 0.0000000000000000e+00  -1.5636523424699841e-02 -8.8435702134249386e-04 0.0000000000000000e+00  -1.5271992627915093e-02 -2.5321941915270375e-03 0.0000000000000000e+00  -1.4470312819225242e-02 -4.1845663500307273e-03 0.0000000000000000e+00  -1.3222763013935709e-02 -5.7904058630241489e-03 0.0000000000000000e+00  -1.1535403608497141e-02 -7.2871506848987194e-03 0.0000000000000000e+00  -9.4360453321496521e-03 -8.6030735351862331e-03 0.0000000000000000e+00  -6.9776069699048005e-03 -9.6561110623444198e-03 0.0000000000000000e+00  -4.2534678707868883e-03 -1.0271750009803560e-02 0.0000000000000000e+00  -1.5179167060918881e-03 -9.0162372904142429e-03 0.0000000000000000e+00  0.0000000000000000e+00 0.0000000000000000e+00 0.0000000000000000e+00  0.0000000000000000e+00 0.0000000000000000e+00 0.0000000000000000e+00  -1.3753612449924769e-03 9.9860348610709207e-03 0.0000000000000000e+00  -3.8803592278659287e-03 1.1443151575942150e-02 0.0000000000000000e+00  -6.4206068662447822e-03 1.0996059518941753e-02 0.0000000000000000e+00  -8.8118955805556731e-03 1.0184877371652598e-02 0.0000000000000000e+00  -1.0994321805181853e-02 9.1267644898114161e-03 0.0000000000000000e+00  -1.2921844490057363e-02 7.8503436019032938e-03 0.0000000000000000e+00  -1.4554974050872173e-02 6.3792518339228612e-03 0.0000000000000000e+00  -1.5859226960091437e-02 4.7359103384992576e-03 0.0000000000000000e+00  -1.6802867247456207e-02 2.9417311665556859e-03 0.0000000000000000e+00  -1.7354860746394370e-02 1.0185645094102631e-03 0.0000000000000000e+00  -1.7483450190659961e-02 -1.0083739039858676e-03 0.0000000000000000e+00  -1.7156180439012927e-02 -3.1062442815420871e-03 0.0000000000000000e+00  -1.6342197530526181e-02 -5.2295674636060538e-03 0.0000000000000000e+00  -1.5017782043105068e-02 -7.3157041288507019e-03 0.0000000000000000e+00  -1.3174541758399614e-02 -9.2827113169680862e-03 0.0000000000000000e+00  -1.0831096043157920e-02 -1.1031368083791793e-02 0.0000000000000000e+00  -8.0407790770961867e-03 -1.2444442428460880e-02 0.0000000000000000e+00  -4.9134526115815098e-03 -1.3283386247647895e-02 0.0000000000000000e+00  -1.7549753370295152e-03 -1.1685245200805357e-02 0.0000000000000000e+00  0.0000000000000000e+00 0.0000000000000000e+00 0.0000000000000000e+00  0.0000000000000000e+00 0.0000000000000000e+00 0.0000000000000000e+00  -1.5423285253355612e-03 1.2384877460974296e-02 0.0000000000000000e+00  -4.3498961506705201e-03 1.4173444440774527e-02 0.0000000000000000e+00  -7.1917141800060033e-03 1.3614899542741060e-02 0.0000000000000000e+00  -9.8624047832638426e-03 1.2609582789654045e-02 0.0000000000000000e+00  -1.2297777809649517e-02 1.1305411225979658e-02 0.0000000000000000e+00  -1.4451018515010640e-02 9.7406045231243511e-03 0.0000000000000000e+00  -1.6284225030363263e-02 7.9454503486125969e-03 0.0000000000000000e+00  -1.7765462138508409e-02 5.9463147559173984e-03 0.0000000000000000e+00  -1.8864868827225160e-02 3.7655238716680721e-03 0.0000000000000000e+00  -1.9550775816373985e-02 1.4230771411723811e-03 0.0000000000000000e+00  -1.9786346974397375e-02 -1.0593128016189439e-03 0.0000000000000000e+00  -1.9527990787598013e-02 -3.6517907451840007e-03 0.0000000000000000e+00  -1.8726890615204935e-02 -6.3080788234412708e-03 0.0000000000000000e+00  -1.7335653745684777e-02 -8.9566354892512065e-03 0.0000000000000000e+00  -1.5320361215964903e-02 -1.1494009328292474e-02 0.0000000000000000e+00  -1.2680098327789203e-02 -1.3784466164937547e-02 0.0000000000000000e+00  -9.4633553233125483e-03 -1.5659665478365455e-02 0.0000000000000000e+00  -5.8013322286829174e-03 -1.6792792995971400e-02 0.0000000000000000e+00  -2.0746782364829131e-03 -1.4806200049095294e-02 0.0000000000000000e+00  0.0000000000000000e+00 0.0000000000000000e+00 0.0000000000000000e+00  0.0000000000000000e+00 0.0000000000000000e+00 0.0000000000000000e+00  -1.7504437253445583e-03 1.5092490693655560e-02 0.0000000000000000e+00  -4.9326113634395432e-03 1.7247398328595984e-02 0.0000000000000000e+00  -8.1431689338914755e-03 1.6556010336649805e-02 0.0000000000000000e+00  -1.1150252010753718e-02 1.5326538392041355e-02 0.0000000000000000e+00  -1.3884926736702000e-02 1.3744213510863907e-02 0.0000000000000000e+00  -1.6301191962976941e-02 1.1860623335330889e-02 0.0000000000000000e+00  -1.8365772040003711e-02 9.7149781299138722e-03 0.0000000000000000e+00  -2.0053163516226425e-02 7.3380056492103095e-03 0.0000000000000000e+00  -2.1339457027314740e-02 4.7512337885389066e-03 0.0000000000000000e+00  -2.2195755944519890e-02 1.9688601882771289e-03 0.0000000000000000e+00  -2.2581935824052192e-02 -9.9716695008514235e-04 0.0000000000000000e+00  -2.2442247121861558e-02 -4.1286383276964624e-03 0.0000000000000000e+00  -2.1703763938701132e-02 -7.3884132251440813e-03 0.0000000000000000e+00  -2.0282537466443571e-02 -1.0703286439403596e-02 0.0000000000000000e+00  -1.8100109090502983e-02 -1.3947833109230992e-02 0.0000000000000000e+00  -1.5116108737629037e-02 -1.6937720550368213e-02 0.0000000000000000e+00  -1.1361673912861251e-02 -1.9428930337243824e-02 0.0000000000000000e+00  -6.9941891989961005e-03 -2.0967028691744188e-02 0.0000000000000000e+00  -2.5050246999843871e-03 -1.8535764595095473e-02 0.0000000000000000e+00  0.0000000000000000e+00 0.0000000000000000e+00 0.0000000000000000e+00  0.0000000000000000e+00 0.0000000000000000e+00 0.0000000000000000e+00  -2.0092163087956517e-03 1.8183129937634171e-02 0.0000000000000000e+00  -5.6523460397194030e-03 2.0742181797651357e-02 0.0000000000000000e+00  -9.3087605180344479e-03 1.9885195811258957e-02 0.0000000000000000e+00  -1.2713464824345983e-02 1.8388101296590433e-02 0.0000000000000000e+00  -1.5792714278797144e-02 1.6483169579541858e-02 0.0000000000000000e+00  -1.8504330451236735e-02 1.4241306065738866e-02 0.0000000000000000e+00  -2.0824744257136412e-02 1.1714271709800205e-02 0.0000000000000000e+00  -2.2741141810912937e-02 8.9381713169716364e-03 0.0000000000000000e+00  -2.4242117163284775e-02 5.9320703849655128e-03 0.0000000000000000e+00  -2.5307699312056915e-02 2.6996955405362059e-03 0.0000000000000000e+00  -2.5900230881869674e-02 -7.6600676202368445e-04 0.0000000000000000e+00  -2.5953570393032796e-02 -4.4726961688201323e-03 0.0000000000000000e+00  -2.5364115801203128e-02 -8.4077923157070550e-03 0.0000000000000000e+00  -2.3994661523757690e-02 -1.2510139802223078e-02 0.0000000000000000e+00  -2.1692477734084423e-02 -1.6641831813607004e-02 0.0000000000000000e+00  -1.8339667453501178e-02 -2.0562467228028628e-02 0.0000000000000000e+00  -1.3918328078415408e-02 -2.3913614741324404e-02 0.0000000000000000e+00  -8.6131182502908448e-03 -2.6037647303281619e-02 0.0000000000000000e+00  -3.0885855925587903e-03 -2.3090487394622973e-02 0.0000000000000000e+00  0.0000000000000000e+00 0.0000000000000000e+00 0.0000000000000000e+00  0.0000000000000000e+00 0.0000000000000000e+00 0.0000000000000000e+00  -2.3337489022672206e-03 2.1749570917905178e-02 0.0000000000000000e+00  -6.5457375365431097e-03 2.4750134243547963e-02 0.0000000000000000e+00  -1.0738842371308760e-02 2.3676250856645653e-02 0.0000000000000000e+00  -1.4606576221919713e-02 2.1847247966580587e-02 0.0000000000000000e+00  -1.8071389989344076e-02 1.9556917053267012e-02 0.0000000000000000e+00  -2.1100441919256020e-02 1.6904507293035231e-02 0.0000000000000000e+00  -2.3688011027302339e-02 1.3959631989177195e-02 0.0000000000000000e+00  -2.5843214120871975e-02 1.0765607101430149e-02 0.0000000000000000e+00  -2.7576481042047830e-02 7.3377655098889492e-03 0.0000000000000000e+00  -2.8887863711679836e-02 3.6634879223136352e-03 0.0000000000000000e+00  -2.9753440055393120e-02 -2.9401542235947461e-04 0.0000000000000000e+00  -3.0099322025784251e-02 -4.5801606035993543e-03 0.0000000000000000e+00  -2.9796105866794979e-02 -9.2291672782714527e-03 0.0000000000000000e+00  -2.8640512306758927e-02 -1.4244152959109309e-02 0.0000000000000000e+00  -2.6355988877185474e-02 -1.9518521640691747e-02 0.0000000000000000e+00  -2.2665755929088621e-02 -2.4739155129853179e-02 0.0000000000000000e+00  -1.7426603953614048e-02 -2.9345019027848276e-02 0.0000000000000000e+00  -1.0849210746775804e-02 -3.2336808929438299e-02 0.0000000000000000e+00  -3.8903161796364927e-03 -2.8770273655102152e-02 0.0000000000000000e+00  0.0000000000000000e+00 0.0000000000000000e+00 0.0000000000000000e+00  0.0000000000000000e+00 0.0000000000000000e+00 0.0000000000000000e+00  -2.7488346487288882e-03 2.5913731061674633e-02 0.0000000000000000e+00  -7.6707175975518384e-03 2.9385779416764051e-02 0.0000000000000000e+00  -1.2510247989480095e-02 2.8012804746470884e-02 0.0000000000000000e+00  -1.6909355474054720e-02 2.5754817290917120e-02 0.0000000000000000e+00  -2.0790549957107270e-02 2.2988871335311731e-02 0.0000000000000000e+00  -2.4140515045022935e-02 1.9855568035653460e-02 0.0000000000000000e+00  -2.6984091041916805e-02 1.6449156227541926e-02 0.0000000000000000e+00  -2.9364809512407167e-02 1.2822393052809017e-02 0.0000000000000000e+00  -3.1328044992229374e-02 8.9855198786409820e-03 0.0000000000000000e+00  -3.2910888715553296e-02 4.9051388735318665e-03 0.0000000000000000e+00  -3.4110742499850751e-02 5.1316862943521905e-04 0.0000000000000000e+00  -3.4869750684021615e-02 -4.2990463013047788e-03 0.0000000000000000e+00  -3.5083121121210238e-02 -9.6960173200029906e-03 0.0000000000000000e+00  -3.4426366772787681e-02 -1.5807208444861578e-02 0.0000000000000000e+00  -3.2443652069283076e-02 -2.2517872891957575e-02 0.0000000000000000e+00  -2.8572034166812386e-02 -2.9488675312512428e-02 0.0000000000000000e+00  -2.2373652435309008e-02 -3.5944784925654429e-02 0.0000000000000000e+00  -1.4032705965089374e-02 -4.0313688135902893e-02 0.0000000000000000e+00  -5.0281217518271188e-03 -3.6030430285316606e-02 0.0000000000000000e+00  0.0000000000000000e+00 0.0000000000000000e+00 0.0000000000000000e+00  0.0000000000000000e+00 0.0000000000000000e+00 0.0000000000000000e+00  -3.2967659997022252e-03 3.0844794097359636e-02 0.0000000000000000e+00  -9.1217438995532616e-03 3.4796377700774248e-02 0.0000000000000000e+00  -1.4742914595605660e-02 3.2989594058186120e-02 0.0000000000000000e+00  -1.9740274978097824e-02 3.0153530433945707e-02 0.0000000000000000e+00  -2.4047552106777191e-02 2.6781375624576685e-02 0.0000000000000000e+00  -2.7690219590606850e-02 2.3072311048333523e-02 0.0000000000000000e+00  -3.0743197361128866e-02 1.9151673292957996e-02 0.0000000000000000e+00  -3.3300587920617727e-02 1.5082101429735220e-02 0.0000000000000000e+00  -3.5459620204229811e-02 1.0867340220654194e-02 0.0000000000000000e+00  -3.7306201277367980e-02 6.4562743731965168e-03 0.0000000000000000e+00  -3.8866459009765104e-02 1.7469663319404981e-03 0.0000000000000000e+00  -4.0220552217760094e-02 -3.4842739138603047e-03 0.0000000000000000e+00  -4.1212917505952858e-02 -9.4744208435755695e-03 0.0000000000000000e+00  -4.1402545600072886e-02 -1.6385866886072305e-02 0.0000000000000000e+00  -4.0412268527930610e-02 -2.4599564132995033e-02 0.0000000000000000e+00  -3.6916027945840861e-02 -3.4318756965886710e-02 0.0000000000000000e+00  -2.9728179116856993e-02 -4.4026153563329513e-02 0.0000000000000000e+00  -1.8760286006690257e-02 -5.0866396596318871e-02 0.0000000000000000e+00  -6.6661482448123919e-03 -4.5683469874538536e-02 0.0000000000000000e+00  0.0000000000000000e+00 0.0000000000000000e+00 0.0000000000000000e+00  0.0000000000000000e+00 0.0000000000000000e+00 0.0000000000000000e+00  -4.0530195123076995e-03 3.6790962301320992e-02 0.0000000000000000e+00  -1.1057830262948818e-02 4.1177691347718925e-02 0.0000000000000000e+00  -1.7628026709407375e-02 3.8710730795798037e-02 0.0000000000000000e+00  -2.3276470356803036e-02 3.5065006190927839e-02 0.0000000000000000e+00  -2.7977627543745272e-02 3.0898954872299073e-02 0.0000000000000000e+00  -3.1832832686465681e-