<?xml version="1.0"?>
<VTKFile type="UnstructuredGrid"  version="0.1"  >
<UnstructuredGrid>
<Piece  NumberOfPoints="441" NumberOfCells="800">
<Points>
<DataArray  type="Float64"  NumberOfComponents="3"  format="ascii">0 0 0  0.05 0 0  0.1 0 0  0.15 0 0  0.2 0 0  0.25 0 0  0.3 0 0  0.35 0 0  0.4 0 0  0.45 0 0  0.5 0 0  0.55 0 0  0.6 0 0  0.65 0 0  0.7 0 0  0.75 0 0  0.8 0 0  0.85 0 0  0.9 0 0  0.95 0 0  1 0 0  0 0.05 0  0.05 0.05 0  0.1 0.05 0  0.15 0.05 0  0.2 0.05 0  0.25 0.05 0  0.3 0.05 0  0.35 0.05 0  0.4 0.05 0  0.45 0.05 0  0.5 0.05 0  0.55 0.05 0  0.6 0.05 0  0.65 0.05 0  0.7 0.05 0  0.75 0.05 0  0.8 0.05 0  0.85 0.05 0  0.9 0.05 0  0.95 0.05 0  1 0.05 0  0 0.1 0  0.05 0.1 0  0.1 0.1 0  0.15 0.1 0  0.2 0.1 0  0.25 0.1 0  0.3 0.1 0  0.35 0.1 0  0.4 0.1 0  0.45 0.1 0  0.5 0.1 0  0.55 0.1 0  0.6 0.1 0  0.65 0.1 0  0.7 0.1 0  0.75 0.1 0  0.8 0.1 0  0.85 0.1 0  0.9 0.1 0  0.95 0.1 0  1 0.1 0  0 0.15 0  0.05 0.15 0  0.1 0.15 0  0.15 0.15 0  0.2 0.15 0  0.25 0.15 0  0.3 0.15 0  0.35 0.15 0  0.4 0.15 0  0.45 0.15 0  0.5 0.15 0  0.55 0.15 0  0.6 0.15 0  0.65 0.15 0  0.7 0.15 0  0.75 0.15 0  0.8 0.15 0  0.85 0.15 0  0.9 0.15 0  0.95 0.15 0  1 0.15 0  0 0.2 0  0.05 0.2 0  0.1 0.2 0  0.15 0.2 0  0.2 0.2 0  0.25 0.2 0  0.3 0.2 0  0.35 0.2 0  0.4 0.2 0  0.45 0.2 0  0.5 0.2 0  0.55 0.2 0  0.6 0.2 0  0.65 0.2 0  0.7 0.2 0  0.75 0.2 0  0.8 0.2 0  0.85 0.2 0  0.9 0.2 0  0.95 0.2 0  1 0.2 0  0 0.25 0  0.05 0.25 0  0.1 0.25 0  0.15 0.25 0  0.2 0.25 0  0.25 0.25 0  0.3 0.25 0  0.35 0.25 0  0.4 0.25 0  0.45 0.25 0  0.5 0.25 0  0.55 0.25 0  0.6 0.25 0  0.65 0.25 0  0.7 0.25 0  0.75 0.25 0  0.8 0.25 0  0.85 0.25 0  0.9 0.25 0  0.95 0.25 0  1 0.25 0  0 0.3 0  0.05 0.3 0  0.1 0.3 0  0.15 0.3 0  0.2 0.3 0  0.25 0.3 0  0.3 0.3 0  0.35 0.3 0  0.4 0.3 0  0.45 0.3 0  0.5 0.3 0  0.55 0.3 0  0.6 0.3 0  0.65 0.3 0  0.7 0.3 0  0.75 0.3 0  0.8 0.3 0  0.85 0.3 0  0.9 0.3 0  0.95 0.3 0  1 0.3 0  0 0.35 0  0.05 0.35 0  0.1 0.35 0  0.15 0.35 0  0.2 0.35 0  0.25 0.35 0  0.3 0.35 0  0.35 0.35 0  0.4 0.35 0  0.45 0.35 0  0.5 0.35 0  0.55 0.35 0  0.6 0.35 0  0.65 0.35 0  0.7 0.35 0  0.75 0.35 0  0.8 0.35 0  0.85 0.35 0  0.9 0.35 0  0.95 0.35 0  1 0.35 0  0 0.4 0  0.05 0.4 0  0.1 0.4 0  0.15 0.4 0  0.2 0.4 0  0.25 0.4 0  0.3 0.4 0  0.35 0.4 0  0.4 0.4 0  0.45 0.4 0  0.5 0.4 0  0.55 0.4 0  0.6 0.4 0  0.65 0.4 0  0.7 0.4 0  0.75 0.4 0  0.8 0.4 0  0.85 0.4 0  0.9 0.4 0  0.95 0.4 0  1 0.4 0  0 0.45 0  0.05 0.45 0  0.1 0.45 0  0.15 0.45 0  0.2 0.45 0  0.25 0.45 0  0.3 0.45 0  0.35 0.45 0  0.4 0.45 0  0.45 0.45 0  0.5 0.45 0  0.55 0.45 0  0.6 0.45 0  0.65 0.45 0  0.7 0.45 0  0.75 0.45 0  0.8 0.45 0  0.85 0.45 0  0.9 0.45 0  0.95 0.45 0  1 0.45 0  0 0.5 0  0.05 0.5 0  0.1 0.5 0  0.15 0.5 0  0.2 0.5 0  0.25 0.5 0  0.3 0.5 0  0.35 0.5 0  0.4 0.5 0  0.45 0.5 0  0.5 0.5 0  0.55 0.5 0  0.6 0.5 0  0.65 0.5 0  0.7 0.5 0  0.75 0.5 0  0.8 0.5 0  0.85 0.5 0  0.9 0.5 0  0.95 0.5 0  1 0.5 0  0 0.55 0  0.05 0.55 0  0.1 0.55 0  0.15 0.55 0  0.2 0.55 0  0.25 0.55 0  0.3 0.55 0  0.35 0.55 0  0.4 0.55 0  0.45 0.55 0  0.5 0.55 0  0.55 0.55 0  0.6 0.55 0  0.65 0.55 0  0.7 0.55 0  0.75 0.55 0  0.8 0.55 0  0.85 0.55 0  0.9 0.55 0  0.95 0.55 0  1 0.55 0  0 0.6 0  0.05 0.6 0  0.1 0.6 0  0.15 0.6 0  0.2 0.6 0  0.25 0.6 0  0.3 0.6 0  0.35 0.6 0  0.4 0.6 0  0.45 0.6 0  0.5 0.6 0  0.55 0.6 0  0.6 0.6 0  0.65 0.6 0  0.7 0.6 0  0.75 0.6 0  0.8 0.6 0  0.85 0.6 0  0.9 0.6 0  0.95 0.6 0  1 0.6 0  0 0.65 0  0.05 0.65 0  0.1 0.65 0  0.15 0.65 0  0.2 0.65 0  0.25 0.65 0  0.3 0.65 0  0.35 0.65 0  0.4 0.65 0  0.45 0.65 0  0.5 0.65 0  0.55 0.65 0  0.6 0.65 0  0.65 0.65 0  0.7 0.65 0  0.75 0.65 0  0.8 0.65 0  0.85 0.65 0  0.9 0.65 0  0.95 0.65 0  1 0.65 0  0 0.7 0  0.05 0.7 0  0.1 0.7 0  0.15 0.7 0  0.2 0.7 0  0.25 0.7 0  0.3 0.7 0  0.35 0.7 0  0.4 0.7 0  0.45 0.7 0  0.5 0.7 0  0.55 0.7 0  0.6 0.7 0  0.65 0.7 0  0.7 0.7 0  0.75 0.7 0  0.8 0.7 0  0.85 0.7 0  0.9 0.7 0  0.95 0.7 0  1 0.7 0  0 0.75 0  0.05 0.75 0  0.1 0.75 0  0.15 0.75 0  0.2 0.75 0  0.25 0.75 0  0.3 0.75 0  0.35 0.75 0  0.4 0.75 0  0.45 0.75 0  0.5 0.75 0  0.55 0.75 0  0.6 0.75 0  0.65 0.75 0  0.7 0.75 0  0.75 0.75 0  0.8 0.75 0  0.85 0.75 0  0.9 0.75 0  0.95 0.75 0  1 0.75 0  0 0.8 0  0.05 0.8 0  0.1 0.8 0  0.15 0.8 0  0.2 0.8 0  0.25 0.8 0  0.3 0.8 0  0.35 0.8 0  0.4 0.8 0  0.45 0.8 0  0.5 0.8 0  0.55 0.8 0  0.6 0.8 0  0.65 0.8 0  0.7 0.8 0  0.75 0.8 0  0.8 0.8 0  0.85 0.8 0  0.9 0.8 0  0.95 0.8 0  1 0.8 0  0 0.85 0  0.05 0.85 0  0.1 0.85 0  0.15 0.85 0  0.2 0.85 0  0.25 0.85 0  0.3 0.85 0  0.35 0.85 0  0.4 0.85 0  0.45 0.85 0  0.5 0.85 0  0.55 0.85 0  0.6 0.85 0  0.65 0.85 0  0.7 0.85 0  0.75 0.85 0  0.8 0.85 0  0.85 0.85 0  0.9 0.85 0  0.95 0.85 0  1 0.85 0  0 0.9 0  0.05 0.9 0  0.1 0.9 0  0.15 0.9 0  0.2 0.9 0  0.25 0.9 0  0.3 0.9 0  0.35 0.9 0  0.4 0.9 0  0.45 0.9 0  0.5 0.9 0  0.55 0.9 0  0.6 0.9 0  0.65 0.9 0  0.7 0.9 0  0.75 0.9 0  0.8 0.9 0  0.85 0.9 0  0.9 0.9 0  0.95 0.9 0  1 0.9 0  0 0.95 0  0.05 0.95 0  0.1 0.95 0  0.15 0.95 0  0.2 0.95 0  0.25 0.95 0  0.3 0.95 0  0.35 0.95 0  0.4 0.95 0  0.45 0.95 0  0.5 0.95 0  0.55 0.95 0  0.6 0.95 0  0.65 0.95 0  0.7 0.95 0  0.75 0.95 0  0.8 0.95 0  0.85 0.95 0  0.9 0.95 0  0.95 0.95 0  1 0.95 0  0 1 0  0.05 1 0  0.1 1 0  0.15 1 0  0.2 1 0  0.25 1 0  0.3 1 0  0.35 1 0  0.4 1 0  0.45 1 0  0.5 1 0  0.55 1 0  0.6 1 0  0.65 1 0  0.7 1 0  0.75 1 0  0.8 1 0  0.85 1 0  0.9 1 0  0.95 1 0  1 1 0  </DataArray>
</Points>
<Cells>
[...]
<PointData  Vectors="f_137"> 
<DataArray  type="Float64"  Name="f_137"  NumberOfComponents="3" format="ascii">0.0000000000000000e+00 0.0000000000000000e+00 0.0000000000000000e+00  0.0000000000000000e+00 0.0000000000000000e+00 0.0000000000000000e+00  0.0000000000000000e+00 0.0000000000000000e+00 0.0000000000000000e+00  0.0000000000000000e+00 0.0000000000000000e+00 0.0000000000000000e+00  0.0000000000000000e+00 0.0000000000000000e+00 0.0000000000000000e+00  0.0000000000000000e+00 0.0000000000000000e+00 0.0000000000000000e+00  0.0000000000000000e+00 0.0000000000000000e+00 0.0000000000000000e+00  0.0000000000000000e+00 0.0000000000000000e+00 0.0000000000000000e+00  0.0000000000000000e+00 0.0000000000000000e+00 0.0000000000000000e+00  0.0000000000000000e+00 0.0000000000000000e+00 0.0000000000000000e+00  0.0000000000000000e+00 0.0000000000000000e+00 0.0000000000000000e+00  0.0000000000000000e+00 0.0000000000000000e+00 0.0000000000000000e+00  0.0000000000000000e+00 0.0000000000000000e+00 0.0000000000000000e+00  0.0000000000000000e+00 0.0000000000000000e+00 0.0000000000000000e+00  0.0000000000000000e+00 0.0000000000000000e+00 0.0000000000000000e+00  0.0000000000000000e+00 0.0000000000000000e+00 0.0000000000000000e+00  0.0000000000000000e+00 0.0000000000000000e+00 0.0000000000000000e+00  0.0000000000000000e+00 0.0000000000000000e+00 0.0000000000000000e+00  0.0000000000000000e+00 0.0000000000000000e+00 0.0000000000000000e+00  0.0000000000000000e+00 0.0000000000000000e+00 0.0000000000000000e+00  0.0000000000000000e+00 0.0000000000000000e+00 0.0000000000000000e+00  0.0000000000000000e+00 0.0000000000000000e+00 0.0000000000000000e+00  -8.0255104619197340e-04 7.9497941956939541e-04 0.0000000000000000e+00  -2.3151641195712576e-03 9.5809524587646985e-04 0.0000000000000000e+00  -3.8813756918185571e-03 9.1907013508441666e-04 0.0000000000000000e+00  -5.3532301761015522e-03 8.5373314092599632e-04 0.0000000000000000e+00  -6.6971237529285235e-03 7.6777767264987610e-04 0.0000000000000000e+00  -7.8778945002120696e-03 6.6225307744070816e-04 0.0000000000000000e+00  -8.8647107464678368e-03 5.3852279290974767e-04 0.0000000000000000e+00  -9.6296000838711013e-03 3.9825371101405373e-04 0.0000000000000000e+00  -1.0148130469373996e-02 2.4353825651373201e-04 0.0000000000000000e+00  -1.0400086352827517e-02 7.6991428606503826e-05 0.0000000000000000e+00  -1.0370314181063090e-02 -9.8077970718570253e-05 0.0000000000000000e+00  -1.0049831438379406e-02 -2.7749704843291136e-04 0.0000000000000000e+00  -9.4371389506744431e-03 -4.5611241759623212e-04 0.0000000000000000e+00  -8.5396703568117911e-03 -6.2780955476597503e-04 0.0000000000000000e+00  -7.3749723135869798e-03 -7.8570325335700997e-04 0.0000000000000000e+00  -5.9716980209850116e-03 -9.2255413651375247e-04 0.0000000000000000e+00  -4.3696359914284404e-03 -1.0301862483452894e-03 0.0000000000000000e+00  -2.6288522469593576e-03 -1.0861716130709778e-03 0.0000000000000000e+00  -9.0580815979415276e-04 -9.0664881346033015e-04 0.0000000000000000e+00  0.0000000000000000e+00 0.0000000000000000e+00 0.0000000000000000e+00  0.0000000000000000e+00 0.0000000000000000e+00 0.0000000000000000e+00  -1.0205345843602898e-03 2.3443834337414184e-03 0.0000000000000000e+00  -2.8679910913382936e-03 2.7488758875344982e-03 0.0000000000000000e+00  -4.7508851621898256e-03 2.6469968794206231e-03 0.0000000000000000e+00  -6.5239735401161356e-03 2.4540108971248357e-03 0.0000000000000000e+00  -8.1382425190165350e-03 2.1998139099537678e-03 0.0000000000000000e+00  -9.5521506806068284e-03 1.8897125980399366e-03 0.0000000000000000e+00  -1.0729315120322819e-02 1.5284786197963935e-03 0.0000000000000000e+00  -1.1637288353099982e-02 1.1217578426044106e-03 0.0000000000000000e+00  -1.2248276217911126e-02 6.7611860344420516e-04 0.0000000000000000e+00  -1.2539586105513522e-02 1.9935923582727034e-04 0.0000000000000000e+00  -1.2494416898222649e-02 -2.9904737823310205e-04 0.0000000000000000e+00  -1.2102986591802560e-02 -8.0748320167667255e-04 0.0000000000000000e+00  -1.1363981419759434e-02 -1.3118388750550389e-03 0.0000000000000000e+00  -1.0286280668066507e-02 -1.7954802893225068e-03 0.0000000000000000e+00  -8.8904218652869904e-03 -2.2397092272073357e-03 0.0000000000000000e+00  -7.2103179048817606e-03 -2.6246722056923692e-03 0.0000000000000000e+00  -5.2934033757694107e-03 -2.9280728248602390e-03 0.0000000000000000e+00  -3.2087043632068311e-03 -3.0943463087930718e-03 0.0000000000000000e+00  -1.1405897630021495e-03 -2.6669982648202992e-03 0.0000000000000000e+00  0.0000000000000000e+00 0.0000000000000000e+00 0.0000000000000000e+00  0.0000000000000000e+00 0.0000000000000000e+00 0.0000000000000000e+00  -1.0730598544926705e-03 4.0690690822347345e-03 0.0000000000000000e+00  -3.0326409889771823e-03 4.7166912400440379e-03 0.0000000000000000e+00  -5.0245552301132427e-03 4.5387309034732861e-03 0.0000000000000000e+00  -6.9012909272727040e-03 4.2052874536263624e-03 0.0000000000000000e+00  -8.6109326360085114e-03 3.7662947473047943e-03 0.0000000000000000e+00  -1.0111314263034889e-02 3.2318711842606799e-03 0.0000000000000000e+00  -1.1364564629638873e-02 2.6111110729777538e-03 0.0000000000000000e+00  -1.2337081020609103e-02 1.9140581233230466e-03 0.0000000000000000e+00  -1.2999674847046767e-02 1.1519629881119899e-03 0.0000000000000000e+00  -1.3327815611357463e-02 3.3785261721531865e-04 0.0000000000000000e+00  -1.3302276325449057e-02 -5.1265932489520389e-04 0.0000000000000000e+00  -1.2910279720763926e-02 -1.3804501250349755e-03 0.0000000000000000e+00  -1.2147208603796228e-02 -2.2421214301866659e-03 0.0000000000000000e+00  -1.1018876587828600e-02 -3.0697380938822503e-03 0.0000000000000000e+00  -9.5437584419673614e-03 -3.8314140318339682e-03 0.0000000000000000e+00  -7.7556197809915493e-03 -4.4927597781585869e-03 0.0000000000000000e+00  -5.7038106420053509e-03 -5.0151194594934643e-03 0.0000000000000000e+00  -3.4623423004086374e-03 -5.3075074999906647e-03 0.0000000000000000e+00  -1.2320698011410046e-03 -4.6102639669342018e-03 0.0000000000000000e+00  0.0000000000000000e+00 0.0000000000000000e+00 0.0000000000000000e+00  0.0000000000000000e+00 0.0000000000000000e+00 0.0000000000000000e+00  -1.1453790172180523e-03 5.8926793267571826e-03 0.0000000000000000e+00  -3.2402376088186101e-03 6.8054252932748310e-03 0.0000000000000000e+00  -5.3710178511512906e-03 6.5475689367399436e-03 0.0000000000000000e+00  -7.3792277834170538e-03 6.0663524644116867e-03 0.0000000000000000e+00  -9.2107292320027286e-03 5.4337082037983955e-03 0.0000000000000000e+00  -1.0822226196188906e-02 4.6650770879416463e-03 0.0000000000000000e+00  -1.2174726236297938e-02 3.7738822152083643e-03 0.0000000000000000e+00  -1.3233595739145542e-02 2.7743435544095034e-03 0.0000000000000000e+00  -1.3968104871165255e-02 1.6818782689161378e-03 0.0000000000000000e+00  -1.4351310499322451e-02 5.1392976818709260e-04 0.0000000000000000e+00  -1.4360376691441782e-02 -7.0869119275367089e-04 0.0000000000000000e+00  -1.3977672204584214e-02 -1.9601626852415459e-03 0.0000000000000000e+00  -1.3192826998453432e-02 -3.2081062915710720e-03 0.0000000000000000e+00  -1.2005868800973580e-02 -4.4127160687096227e-03 0.0000000000000000e+00  -1.0430715627742433e-02 -5.5272056492881314e-03 0.0000000000000000e+00  -8.4994632383277903e-03 -6.4998084026044196e-03 0.0000000000000000e+00  -6.2637262657483112e-03 -7.2720737545117200e-03 0.0000000000000000e+00  -3.8063476191443593e-03 -7.7118955480021409e-03 0.0000000000000000e+00  -1.3541604231261885e-03 -6.7245918248443710e-03 0.0000000000000000e+00  0.0000000000000000e+00 0.0000000000000000e+00 0.0000000000000000e+00  0.0000000000000000e+00 0.0000000000000000e+00 0.0000000000000000e+00  -1.2460192112413789e-03 7.8615073553400423e-03 0.0000000000000000e+00  -3.5259026555122031e-03 9.0600021630476077e-03 0.0000000000000000e+00  -5.8450035203593785e-03 8.7154653069544067e-03 0.0000000000000000e+00  -8.0308036542802025e-03 8.0758632039640635e-03 0.0000000000000000e+00  -1.0026391824861111e-02 7.2372886985630569e-03 0.0000000000000000e+00  -1.1786889922718986e-02 6.2210609904499352e-03 0.0000000000000000e+00  -1.3272487784557911e-02 5.0451638959323874e-03 0.0000000000000000e+00  -1.4447843226131142e-02 3.7277792072125237e-03 0.0000000000000000e+00  -1.5280899856022290e-02 2.2876601342390964e-03 0.0000000000000000e+00  -1.5742031542455865e-02 7.4529430684251469e-04 0.0000000000000000e+00  -1.5803734281479201e-02 -8.7501495135025652e-04 0.0000000000000000e+00  -1.5441447307091996e-02 -2.5423883849520941e-03 0.0000000000000000e+00  -1.4635920934700916e-02 -4.2164524661870654e-03 0.0000000000000000e+00  -1.3377538870821345e-02 -5.8451564090353679e-03 0.0000000000000000e+00  -1.1671828547392890e-02 -7.3644911032490880e-03 0.0000000000000000e+00  -9.5466521250160384e-03 -8.7008985076866361e-03 0.0000000000000000e+00  -7.0558589063247461e-03 -9.7698333598393097e-03 0.0000000000000000e+00  -4.2951116894184961e-03 -1.0387883147304343e-02 0.0000000000000000e+00  -1.5285852398851235e-03 -9.0808146134899355e-03 0.0000000000000000e+00  0.0000000000000000e+00 0.0000000000000000e+00 0.0000000000000000e+00  0.0000000000000000e+00 0.0000000000000000e+00 0.0000000000000000e+00  -1.3775570491113879e-03 1.0022523583881032e-02 0.0000000000000000e+00  -3.8982271830198035e-03 1.1533125562969157e-02 0.0000000000000000e+00  -6.4601329639244988e-03 1.1092868719025376e-02 0.0000000000000000e+00  -8.8734945741030195e-03 1.0280199526975238e-02 0.0000000000000000e+00  -1.1077851354988268e-02 9.2186743022194071e-03 0.0000000000000000e+00  -1.3026871871816214e-02 7.9369200740300079e-03 0.0000000000000000e+00  -1.4680715905744308e-02 6.4581702545474760e-03 0.0000000000000000e+00  -1.6004409420026251e-02 4.8043760347983942e-03 0.0000000000000000e+00  -1.6965547388238595e-02 2.9964653570904126e-03 0.0000000000000000e+00  -1.7532206091611029e-02 1.0558570835421848e-03 0.0000000000000000e+00  -1.7671488070060123e-02 -9.9250807167582025e-04 0.0000000000000000e+00  -1.7349555454782752e-02 -3.1157571646963185e-03 0.0000000000000000e+00  -1.6534011756346244e-02 -5.2678782527455694e-03 0.0000000000000000e+00  -1.5199644366102095e-02 -7.3850179951258357e-03 0.0000000000000000e+00  -1.3336955921049351e-02 -9.3832505392513650e-03 0.0000000000000000e+00  -1.0964251759758872e-02 -1.1160683763618996e-02 0.0000000000000000e+00  -8.1358388204881647e-03 -1.2596430274467458e-02 0.0000000000000000e+00  -4.9645122210970581e-03 -1.3439811007247332e-02 0.0000000000000000e+00  -1.7683285462880536e-03 -1.1774612277095095e-02 0.0000000000000000e+00  0.0000000000000000e+00 0.0000000000000000e+00 0.0000000000000000e+00  0.0000000000000000e+00 0.0000000000000000e+00 0.0000000000000000e+00  -1.5439819563377746e-03 1.2429984219551464e-02 0.0000000000000000e+00  -4.3677166374043010e-03 1.4284365781146112e-02 0.0000000000000000e+00  -7.2324010414626539e-03 1.3734406553286027e-02 0.0000000000000000e+00  -9.9266435522843768e-03 1.2727756716423500e-02 0.0000000000000000e+00  -1.2385774442028373e-02 1.1420077094809583e-02 0.0000000000000000e+00  -1.4562779514115063e-02 9.8495838797837184e-03 0.0000000000000000e+00  -1.6419489959602844e-02 8.0460372020731367e-03 0.0000000000000000e+00  -1.7923539176892492e-02 6.0351597125331393e-03 0.0000000000000000e+00  -1.9044410251573517e-02 3.8385617748707469e-03 0.0000000000000000e+00  -1.9749474399736549e-02 1.4755134176153786e-03 0.0000000000000000e+00  -2.0000535244708961e-02 -1.0328934510387565e-03 0.0000000000000000e+00  -1.9752180717898270e-02 -3.6570921656978173e-03 0.0000000000000000e+00  -1.8953348297812762e-02 -6.3504578613740757e-03 0.0000000000000000e+00  -1.7554217549311770e-02 -9.0401202064730179e-03 0.0000000000000000e+00  -1.5518761277570502e-02 -1.1620040495336449e-02 0.0000000000000000e+00  -1.2844995485687761e-02 -1.3950604712431437e-02 0.0000000000000000e+00  -9.5823008097354091e-03 -1.5857965626341283e-02 0.0000000000000000e+00  -5.8658060284847045e-03 -1.6998770397181850e-02 0.0000000000000000e+00  -2.0918586519750562e-03 -1.4926581456222476e-02 0.0000000000000000e+00  0.0000000000000000e+00 0.0000000000000000e+00 0.0000000000000000e+00  0.0000000000000000e+00 0.0000000000000000e+00 0.0000000000000000e+00  -1.7513422367872609e-03 1.5145918285467883e-02 0.0000000000000000e+00  -4.9500922966827709e-03 1.7380292985872531e-02 0.0000000000000000e+00  -8.1847604478997044e-03 1.6699581092313020e-02 0.0000000000000000e+00  -1.1216951325291864e-02 1.5469263360299752e-02 0.0000000000000000e+00  -1.3977362275306705e-02 1.3883774123188111e-02 0.0000000000000000e+00  -1.6419920276122473e-02 1.1994693206357359e-02 0.0000000000000000e+00  -1.8511212698133651e-02 9.8405714168344795e-03 0.0000000000000000e+00  -2.0225427091813644e-02 7.4512957083609508e-03 0.0000000000000000e+00  -2.1538101787390230e-02 4.8473840436197568e-03 0.0000000000000000e+00  -2.2419399034926346e-02 2.0418933137613068e-03 0.0000000000000000e+00  -2.2827671969333073e-02 -9.5436999529969818e-04 0.0000000000000000e+00  -2.2704913139971038e-02 -4.1241162882526836e-03 0.0000000000000000e+00  -2.1975047492952208e-02 -7.4305064629744373e-03 0.0000000000000000e+00  -2.0550258324163885e-02 -1.0799259338020254e-02 0.0000000000000000e+00  -1.8348161807683599e-02 -1.4101707994930436e-02 0.0000000000000000e+00  -1.5325729873451871e-02 -1.7147747154388885e-02 0.0000000000000000e+00  -1.1514601174751270e-02 -1.9684807280881237e-02 0.0000000000000000e+00  -7.0777086270966110e-03 -2.1235685848632724e-02 0.0000000000000000e+00  -2.5275962577851040e-03 -1.8695950187631809e-02 0.0000000000000000e+00  0.0000000000000000e+00 0.0000000000000000e+00 0.0000000000000000e+00  0.0000000000000000e+00 0.0000000000000000e+00 0.0000000000000000e+00  -2.0090772818892998e-03 1.8244331330058719e-02 0.0000000000000000e+00  -5.6690190914549131e-03 2.0898031118738850e-02 0.0000000000000000e+00  -9.3507075431787136e-03 2.0054186532389159e-02 0.0000000000000000e+00  -1.2782025471703999e-02 1.8557122467596335e-02 0.0000000000000000e+00  -1.5889010632393018e-02 1.6649899030162174e-02 0.0000000000000000e+00  -1.8629578166115979e-02 1.4403423004797978e-02 0.0000000000000000e+00  -2.0980202568304861e-02 1.1868672841945285e-02 0.0000000000000000e+00  -2.2927974759600605e-02 9.0807134774147143e-03 0.0000000000000000e+00  -2.4461167309709465e-02 6.0572912685412520e-03 0.0000000000000000e+00  -2.5559018686120170e-02 2.8005277306592585e-03 0.0000000000000000e+00  -2.6182495292631454e-02 -6.9859337365315048e-04 0.0000000000000000e+00  -2.6262921650256003e-02 -4.4499607878453959e-03 0.0000000000000000e+00  -2.5692447028484968e-02 -8.4425240893858128e-03 0.0000000000000000e+00  -2.4327859592300181e-02 -1.2614682003047439e-02 0.0000000000000000e+00  -2.2009304160582038e-02 -1.6824906432227432e-02 0.0000000000000000e+00  -1.8613012769362062e-02 -2.0824722516636671e-02 0.0000000000000000e+00  -1.4120297356454460e-02 -2.4242432453308645e-02 0.0000000000000000e+00  -8.7239198029878846e-03 -2.6387928317966963e-02 0.0000000000000000e+00  -3.1187463923558591e-03 -2.3303235746969464e-02 0.0000000000000000e+00  0.0000000000000000e+00 0.0000000000000000e+00 0.0000000000000000e+00  0.0000000000000000e+00 0.0000000000000000e+00 0.0000000000000000e+00  -2.3322203025494901e-03 2.1817646341978528e-02 0.0000000000000000e+00  -6.5609465963174136e-03 2.4929754765261079e-02 0.0000000000000000e+00  -1.0780265741471789e-02 2.3871866541602713e-02 0.0000000000000000e+00  -1.4675909426744339e-02 2.2044208550269083e-02 0.0000000000000000e+00  -1.8170311799068712e-02 1.9753071561080502e-02 0.0000000000000000e+00  -2.1230920403956712e-02 1.7097734538731924e-02 0.0000000000000000e+00  -2.3852285880894074e-02 1.4146932203758933e-02 0.0000000000000000e+00  -2.6043737599254841e-02 1.0942793930517367e-02 0.0000000000000000e+00  -2.7815693779790117e-02 7.4991261356367710e-03 0.0000000000000000e+00  -2.9167953731881444e-02 3.8011467140942031e-03 0.0000000000000000e+00  -3.0076054210015146e-02 -1.9101281846992590e-04 0.0000000000000000e+00  -3.0463061086710222e-02 -4.5262182810004445e-03 0.0000000000000000e+00  -3.0195125892476544e-02 -9.2418516349255121e-03 0.0000000000000000e+00  -2.9060215909990562e-02 -1.4344847057485151e-02 0.0000000000000000e+00  -2.6769241315322705e-02 -1.9726785645378751e-02 0.0000000000000000e+00  -2.3032537589758907e-02 -2.5063109434725141e-02 0.0000000000000000e+00  -1.7701621703191336e-02 -2.9770441784268849e-02 0.0000000000000000e+00  -1.0999371423101027e-02 -3.2799018562441579e-02 0.0000000000000000e+00  -3.9305712254504915e-03 -2.9054452082069186e-02 0.0000000000000000e+00  0.0000000000000000e+00 0.0000000000000000e+00 0.0000000000000000e+00  0.0000000000000000e+00 0.0000000000000000e+00 0.0000000000000000e+00  -2.7455080351467022e-03 2.5987326870195556e-02 0.0000000000000000e+00  -7.6836225019150392e-03 2.9589680987871958e-02 0.0000000000000000e+00  -1.2549910280787975e-02 2.8235924663461458e-02 0.0000000000000000e+00  -1.6977819162174557e-02 2.5981077338846553e-02 0.0000000000000000e+00  -2.0890109430529675e-02 2.3216497894303925e-02 0.0000000000000000e+00  -2.4273963922154623e-02 2.0082853308994727e-02 0.0000000000000000e+00  -2.7154744241247079e-02 1.6673460066461747e-02 0.0000000000000000e+00  -2.9576488677722119e-02 1.3039879267690907e-02 0.0000000000000000e+00  -3.1584950222339654e-02 9.1907930572914676e-03 0.0000000000000000e+00  -3.3218487471321619e-02 5.0900995776951650e-03 0.0000000000000000e+00  -3.4474167032855094e-02 6.6640568810464988e-04 0.0000000000000000e+00  -3.5292260346304061e-02 -4.1944319521401239e-03 0.0000000000000000e+00  -3.5567935756809901e-02 -9.6673744457840185e-03 0.0000000000000000e+00  -3.4959263880953745e-02 -1.5890898049500609e-02 0.0000000000000000e+00  -3.2994380951073071e-02 -2.2746616613242107e-02 0.0000000000000000e+00  -2.9081510731451737e-02 -2.9891265719494638e-02 0.0000000000000000e+00  -2.2761539689194091e-02 -3.6510454187368188e-02 0.0000000000000000e+00  -1.4238293253168431e-02 -4.0937675697933551e-02 0.0000000000000000e+00  -5.0797726393209171e-03 -3.6408184453664338e-02 0.0000000000000000e+00  0.0000000000000000e+00 0.0000000000000000e+00 0.0000000000000000e+00  0.0000000000000000e+00 0.0000000000000000e+00 0.0000000000000000e+00  -3.2912118557581549e-03 3.0922021865346046e-02 0.0000000000000000e+00  -9.1313468286723220e-03 3.5024590803163676e-02 0.0000000000000000e+00  -1.4779196458469890e-02 3.3240550580988536e-02 0.0000000000000000e+00  -1.9805608391491036e-02 3.0409955627518685e-02 0.0000000000000000e+00  -2.4144931769695715e-02 2.7042103648823073e-02 0.0000000000000000e+00  -2.7823338466257085e-02 2.3336238415619780e-02 0.0000000000000000e+00  -3.0916445270646405e-02 1.9416747533398809e-02 0.0000000000000000e+00  -3.3518961343466144e-02 1.5345237487200455e-02 0.0000000000000000e+00  -3.5729192137642814e-02 1.1124095546575750e-02 0.0000000000000000e+00  -3.7636475525212709e-02 6.6997913594466357e-03 0.0000000000000000e+00  -3.9263254273974535e-02 1.9681498701346182e-03 0.0000000000000000e+00  -4.0704481565366796e-02 -3.3054231540169793e-03 0.0000000000000000e+00  -4.1790301146217436e-02 -9.3692202717038427e-03 0.0000000000000000e+00  -4.2072750849203235e-02 -1.6392568321880449e-02 0.0000000000000000e+00  -4.1166464622861415e-02 -2.4803623953433253e-02 0.0000000000000000e+00  -3.7651419006600163e-02 -3.4803122252537101e-02 0.0000000000000000e+00  -3.0300089020956055e-02 -4.4764159888645495e-02 0.0000000000000000e+00  -1.9047652178230297e-02 -5.1703250910687476e-02 0.0000000000000000e+00  -6.7292784208768438e-03 -4.6181138773345433e-02 0.0000000000000000e+00  0.0000000000000000e+00 0.0000000000000000e+00 0.0000000000000000e+00  0.0000000000000000e+00 0.0000000000000000e+00 0.0000000000000000e+00  -4.0448603059430660e-03 3.6869378469045568e-02 0.0000000000000000e+00  -1.1063029561309411e-02 4.1429523250294108e-02 0.0000000000000000e+00  -1.7658883397501463e-02 3.8989013531183322e-02 0.0000000000000000e+00  -2.3335694032055185e-02 3.5351732294014011e-02 0.0000000000000000e+00  -2.8069103353355992e-02 3.1193813816110846e-02 0.0000000000000000e+00  -3.1961284507127055e-