<?xml version="1.0"?>
<VTKFile type="UnstructuredGrid"  version="0.1"  >
<UnstructuredGrid>
<Piece  NumberOfPoints="441" NumberOfCells="800">
<Points>
<DataArray  type="Float64"  NumberOfComponents="3"  format="ascii">0 0 0  0.05 0 0  0.1 0 0  0.15 0 0  0.2 0 0  0.25 0 0  0.3 0 0  0.35 0 0  0.4 0 0  0.45 0 0  0.5 0 0  0.55 0 0  0.6 0 0  0.65 0 0  0.7 0 0  0.75 0 0  0.8 0 0  0.85 0 0  0.9 0 0  0.95 0 0  1 0 0  0 0.05 0  0.05 0.05 0  0.1 0.05 0  0.15 0.05 0  0.2 0.05 0  0.25 0.05 0  0.3 0.05 0  0.35 0.05 0  0.4 0.05 0  0.45 0.05 0  0.5 0.05 0  0.55 0.05 0  0.6 0.05 0  0.65 0.05 0  0.7 0.05 0  0.75 0.05 0  0.8 0.05 0  0.85 0.05 0  0.9 0.05 0  0.95 0.05 0  1 0.05 0  0 0.1 0  0.05 0.1 0  0.1 0.1 0  0.15 0.1 0  0.2 0.1 0  0.25 0.1 0  0.3 0.1 0  0.35 0.1 0  0.4 0.1 0  0.45 0.1 0  0.5 0.1 0  0.55 0.1 0  0.6 0.1 0  0.65 0.1 0  0.7 0.1 0  0.75 0.1 0  0.8 0.1 0  0.85 0.1 0  0.9 0.1 0  0.95 0.1 0  1 0.1 0  0 0.15 0  0.05 0.15 0  0.1 0.15 0  0.15 0.15 0  0.2 0.15 0  0.25 0.15 0  0.3 0.15 0  0.35 0.15 0  0.4 0.15 0  0.45 0.15 0  0.5 0.15 0  0.55 0.15 0  0.6 0.15 0  0.65 0.15 0  0.7 0.15 0  0.75 0.15 0  0.8 0.15 0  0.85 0.15 0  0.9 0.15 0  0.95 0.15 0  1 0.15 0  0 0.2 0  0.05 0.2 0  0.1 0.2 0  0.15 0.2 0  0.2 0.2 0  0.25 0.2 0  0.3 0.2 0  0.35 0.2 0  0.4 0.2 0  0.45 0.2 0  0.5 0.2 0  0.55 0.2 0  0.6 0.2 0  0.65 0.2 0  0.7 0.2 0  0.75 0.2 0  0.8 0.2 0  0.85 0.2 0  0.9 0.2 0  0.95 0.2 0  1 0.2 0  0 0.25 0  0.05 0.25 0  0.1 0.25 0  0.15 0.25 0  0.2 0.25 0  0.25 0.25 0  0.3 0.25 0  0.35 0.25 0  0.4 0.25 0  0.45 0.25 0  0.5 0.25 0  0.55 0.25 0  0.6 0.25 0  0.65 0.25 0  0.7 0.25 0  0.75 0.25 0  0.8 0.25 0  0.85 0.25 0  0.9 0.25 0  0.95 0.25 0  1 0.25 0  0 0.3 0  0.05 0.3 0  0.1 0.3 0  0.15 0.3 0  0.2 0.3 0  0.25 0.3 0  0.3 0.3 0  0.35 0.3 0  0.4 0.3 0  0.45 0.3 0  0.5 0.3 0  0.55 0.3 0  0.6 0.3 0  0.65 0.3 0  0.7 0.3 0  0.75 0.3 0  0.8 0.3 0  0.85 0.3 0  0.9 0.3 0  0.95 0.3 0  1 0.3 0  0 0.35 0  0.05 0.35 0  0.1 0.35 0  0.15 0.35 0  0.2 0.35 0  0.25 0.35 0  0.3 0.35 0  0.35 0.35 0  0.4 0.35 0  0.45 0.35 0  0.5 0.35 0  0.55 0.35 0  0.6 0.35 0  0.65 0.35 0  0.7 0.35 0  0.75 0.35 0  0.8 0.35 0  0.85 0.35 0  0.9 0.35 0  0.95 0.35 0  1 0.35 0  0 0.4 0  0.05 0.4 0  0.1 0.4 0  0.15 0.4 0  0.2 0.4 0  0.25 0.4 0  0.3 0.4 0  0.35 0.4 0  0.4 0.4 0  0.45 0.4 0  0.5 0.4 0  0.55 0.4 0  0.6 0.4 0  0.65 0.4 0  0.7 0.4 0  0.75 0.4 0  0.8 0.4 0  0.85 0.4 0  0.9 0.4 0  0.95 0.4 0  1 0.4 0  0 0.45 0  0.05 0.45 0  0.1 0.45 0  0.15 0.45 0  0.2 0.45 0  0.25 0.45 0  0.3 0.45 0  0.35 0.45 0  0.4 0.45 0  0.45 0.45 0  0.5 0.45 0  0.55 0.45 0  0.6 0.45 0  0.65 0.45 0  0.7 0.45 0  0.75 0.45 0  0.8 0.45 0  0.85 0.45 0  0.9 0.45 0  0.95 0.45 0  1 0.45 0  0 0.5 0  0.05 0.5 0  0.1 0.5 0  0.15 0.5 0  0.2 0.5 0  0.25 0.5 0  0.3 0.5 0  0.35 0.5 0  0.4 0.5 0  0.45 0.5 0  0.5 0.5 0  0.55 0.5 0  0.6 0.5 0  0.65 0.5 0  0.7 0.5 0  0.75 0.5 0  0.8 0.5 0  0.85 0.5 0  0.9 0.5 0  0.95 0.5 0  1 0.5 0  0 0.55 0  0.05 0.55 0  0.1 0.55 0  0.15 0.55 0  0.2 0.55 0  0.25 0.55 0  0.3 0.55 0  0.35 0.55 0  0.4 0.55 0  0.45 0.55 0  0.5 0.55 0  0.55 0.55 0  0.6 0.55 0  0.65 0.55 0  0.7 0.55 0  0.75 0.55 0  0.8 0.55 0  0.85 0.55 0  0.9 0.55 0  0.95 0.55 0  1 0.55 0  0 0.6 0  0.05 0.6 0  0.1 0.6 0  0.15 0.6 0  0.2 0.6 0  0.25 0.6 0  0.3 0.6 0  0.35 0.6 0  0.4 0.6 0  0.45 0.6 0  0.5 0.6 0  0.55 0.6 0  0.6 0.6 0  0.65 0.6 0  0.7 0.6 0  0.75 0.6 0  0.8 0.6 0  0.85 0.6 0  0.9 0.6 0  0.95 0.6 0  1 0.6 0  0 0.65 0  0.05 0.65 0  0.1 0.65 0  0.15 0.65 0  0.2 0.65 0  0.25 0.65 0  0.3 0.65 0  0.35 0.65 0  0.4 0.65 0  0.45 0.65 0  0.5 0.65 0  0.55 0.65 0  0.6 0.65 0  0.65 0.65 0  0.7 0.65 0  0.75 0.65 0  0.8 0.65 0  0.85 0.65 0  0.9 0.65 0  0.95 0.65 0  1 0.65 0  0 0.7 0  0.05 0.7 0  0.1 0.7 0  0.15 0.7 0  0.2 0.7 0  0.25 0.7 0  0.3 0.7 0  0.35 0.7 0  0.4 0.7 0  0.45 0.7 0  0.5 0.7 0  0.55 0.7 0  0.6 0.7 0  0.65 0.7 0  0.7 0.7 0  0.75 0.7 0  0.8 0.7 0  0.85 0.7 0  0.9 0.7 0  0.95 0.7 0  1 0.7 0  0 0.75 0  0.05 0.75 0  0.1 0.75 0  0.15 0.75 0  0.2 0.75 0  0.25 0.75 0  0.3 0.75 0  0.35 0.75 0  0.4 0.75 0  0.45 0.75 0  0.5 0.75 0  0.55 0.75 0  0.6 0.75 0  0.65 0.75 0  0.7 0.75 0  0.75 0.75 0  0.8 0.75 0  0.85 0.75 0  0.9 0.75 0  0.95 0.75 0  1 0.75 0  0 0.8 0  0.05 0.8 0  0.1 0.8 0  0.15 0.8 0  0.2 0.8 0  0.25 0.8 0  0.3 0.8 0  0.35 0.8 0  0.4 0.8 0  0.45 0.8 0  0.5 0.8 0  0.55 0.8 0  0.6 0.8 0  0.65 0.8 0  0.7 0.8 0  0.75 0.8 0  0.8 0.8 0  0.85 0.8 0  0.9 0.8 0  0.95 0.8 0  1 0.8 0  0 0.85 0  0.05 0.85 0  0.1 0.85 0  0.15 0.85 0  0.2 0.85 0  0.25 0.85 0  0.3 0.85 0  0.35 0.85 0  0.4 0.85 0  0.45 0.85 0  0.5 0.85 0  0.55 0.85 0  0.6 0.85 0  0.65 0.85 0  0.7 0.85 0  0.75 0.85 0  0.8 0.85 0  0.85 0.85 0  0.9 0.85 0  0.95 0.85 0  1 0.85 0  0 0.9 0  0.05 0.9 0  0.1 0.9 0  0.15 0.9 0  0.2 0.9 0  0.25 0.9 0  0.3 0.9 0  0.35 0.9 0  0.4 0.9 0  0.45 0.9 0  0.5 0.9 0  0.55 0.9 0  0.6 0.9 0  0.65 0.9 0  0.7 0.9 0  0.75 0.9 0  0.8 0.9 0  0.85 0.9 0  0.9 0.9 0  0.95 0.9 0  1 0.9 0  0 0.95 0  0.05 0.95 0  0.1 0.95 0  0.15 0.95 0  0.2 0.95 0  0.25 0.95 0  0.3 0.95 0  0.35 0.95 0  0.4 0.95 0  0.45 0.95 0  0.5 0.95 0  0.55 0.95 0  0.6 0.95 0  0.65 0.95 0  0.7 0.95 0  0.75 0.95 0  0.8 0.95 0  0.85 0.95 0  0.9 0.95 0  0.95 0.95 0  1 0.95 0  0 1 0  0.05 1 0  0.1 1 0  0.15 1 0  0.2 1 0  0.25 1 0  0.3 1 0  0.35 1 0  0.4 1 0  0.45 1 0  0.5 1 0  0.55 1 0  0.6 1 0  0.65 1 0  0.7 1 0  0.75 1 0  0.8 1 0  0.85 1 0  0.9 1 0  0.95 1 0  1 1 0  </DataArray>
</Points>
<Cells>
[...]
<PointData  Vectors="f_137"> 
<DataArray  type="Float64"  Name="f_137"  NumberOfComponents="3" format="ascii">0.0000000000000000e+00 0.0000000000000000e+00 0.0000000000000000e+00  0.0000000000000000e+00 0.0000000000000000e+00 0.0000000000000000e+00  0.0000000000000000e+00 0.0000000000000000e+00 0.0000000000000000e+00  0.0000000000000000e+00 0.0000000000000000e+00 0.0000000000000000e+00  0.0000000000000000e+00 0.0000000000000000e+00 0.0000000000000000e+00  0.0000000000000000e+00 0.0000000000000000e+00 0.0000000000000000e+00  0.0000000000000000e+00 0.0000000000000000e+00 0.0000000000000000e+00  0.0000000000000000e+00 0.0000000000000000e+00 0.0000000000000000e+00  0.0000000000000000e+00 0.0000000000000000e+00 0.0000000000000000e+00  0.0000000000000000e+00 0.0000000000000000e+00 0.0000000000000000e+00  0.0000000000000000e+00 0.0000000000000000e+00 0.0000000000000000e+00  0.0000000000000000e+00 0.0000000000000000e+00 0.0000000000000000e+00  0.0000000000000000e+00 0.0000000000000000e+00 0.0000000000000000e+00  0.0000000000000000e+00 0.0000000000000000e+00 0.0000000000000000e+00  0.0000000000000000e+00 0.0000000000000000e+00 0.0000000000000000e+00  0.0000000000000000e+00 0.0000000000000000e+00 0.0000000000000000e+00  0.0000000000000000e+00 0.0000000000000000e+00 0.0000000000000000e+00  0.0000000000000000e+00 0.0000000000000000e+00 0.0000000000000000e+00  0.0000000000000000e+00 0.0000000000000000e+00 0.0000000000000000e+00  0.0000000000000000e+00 0.0000000000000000e+00 0.0000000000000000e+00  0.0000000000000000e+00 0.0000000000000000e+00 0.0000000000000000e+00  0.0000000000000000e+00 0.0000000000000000e+00 0.0000000000000000e+00  -8.0000270334345494e-04 7.9243397042655513e-04 0.0000000000000000e+00  -2.3160463570939265e-03 9.6039476338532896e-04 0.0000000000000000e+00  -3.8903505206126917e-03 9.2231118173354682e-04 0.0000000000000000e+00  -5.3707296213186262e-03 8.5722192162323576e-04 0.0000000000000000e+00  -6.7232264000948640e-03 7.7150883547030705e-04 0.0000000000000000e+00  -7.9124938944463048e-03 6.6615398965977931e-04 0.0000000000000000e+00  -8.9074655759421289e-03 5.4245883866045163e-04 0.0000000000000000e+00  -9.6798537325872101e-03 4.0202946753985810e-04 0.0000000000000000e+00  -1.0204839095765202e-02 2.4690647372268458e-04 0.0000000000000000e+00  -1.0461767105893841e-02 7.9668055391972757e-05 0.0000000000000000e+00  -1.0435023350380462e-02 -9.6390317331191005e-05 0.0000000000000000e+00  -1.0115185484847435e-02 -2.7707752144406141e-04 0.0000000000000000e+00  -9.5003882109469528e-03 -4.5718441705428696e-04 0.0000000000000000e+00  -8.5978316147556286e-03 -6.3050202735592071e-04 0.0000000000000000e+00  -7.4250173484945994e-03 -7.9001795790983333e-04 0.0000000000000000e+00  -6.0107779759543184e-03 -9.2834396448446212e-04 0.0000000000000000e+00  -4.3953642237268891e-03 -1.0370712003261475e-03 0.0000000000000000e+00  -2.6400125130859224e-03 -1.0928578949767121e-03 0.0000000000000000e+00  -9.0673175744394722e-04 -9.0769593410250230e-04 0.0000000000000000e+00  0.0000000000000000e+00 0.0000000000000000e+00 0.0000000000000000e+00  0.0000000000000000e+00 0.0000000000000000e+00 0.0000000000000000e+00  -1.0229726123566008e-03 2.3454711754830175e-03 0.0000000000000000e+00  -2.8828425470830373e-03 2.7632802600186979e-03 0.0000000000000000e+00  -4.7827536149368287e-03 2.6637150990195323e-03 0.0000000000000000e+00  -6.5728517734798091e-03 2.4707746988460056e-03 0.0000000000000000e+00  -8.2034584242585765e-03 2.2162915769816218e-03 0.0000000000000000e+00  -9.6325965736155997e-03 1.9055250652233906e-03 0.0000000000000000e+00  -1.0823477149985473e-02 1.5431201234594096e-03 0.0000000000000000e+00  -1.1743188191493708e-02 1.1346009074631827e-03 0.0000000000000000e+00  -1.2363430375975067e-02 6.8643514238522687e-04 0.0000000000000000e+00  -1.2660979392860740e-02 2.0636001909524407e-04 0.0000000000000000e+00  -1.2618506369959618e-02 -2.9615136452672156e-04 0.0000000000000000e+00  -1.2225751126099941e-02 -8.0939790928278871e-04 0.0000000000000000e+00  -1.1481029923179120e-02 -1.3190882574121558e-03 0.0000000000000000e+00  -1.0393029217855738e-02 -1.8083032529283122e-03 0.0000000000000000e+00  -8.9823395954192094e-03 -2.2579693474587604e-03 0.0000000000000000e+00  -7.2832137431863564e-03 -2.6477951224015265e-03 0.0000000000000000e+00  -5.3438447841960175e-03 -2.9548468323707566e-03 0.0000000000000000e+00  -3.2347622408426565e-03 -3.1209382599673499e-03 0.0000000000000000e+00  -1.1468066275005708e-03 -2.6780633818136836e-03 0.0000000000000000e+00  0.0000000000000000e+00 0.0000000000000000e+00 0.0000000000000000e+00  0.0000000000000000e+00 0.0000000000000000e+00 0.0000000000000000e+00  -1.0761699975755951e-03 4.0785841095167608e-03 0.0000000000000000e+00  -3.0499353276784136e-03 4.7484077581874890e-03 0.0000000000000000e+00  -5.0605867527725584e-03 4.5737910043123654e-03 0.0000000000000000e+00  -6.9560081768674249e-03 4.2398816864271573e-03 0.0000000000000000e+00  -8.6836010636014444e-03 3.7996411920010274e-03 0.0000000000000000e+00  -1.0200771396225149e-02 3.2631751498887348e-03 0.0000000000000000e+00  -1.1469220529709469e-02 2.6394114436417843e-03 0.0000000000000000e+00  -1.2454855394524315e-02 1.9382231758694223e-03 0.0000000000000000e+00  -1.3127942712848277e-02 1.1707173432823647e-03 0.0000000000000000e+00  -1.3463360329887574e-02 3.4983759638880995e-04 0.0000000000000000e+00  -1.3441269828663551e-02 -5.0878739026585687e-04 0.0000000000000000e+00  -1.3048309672219158e-02 -1.3858820220654150e-03 0.0000000000000000e+00  -1.2279373644722801e-02 -2.2577247402135485e-03 0.0000000000000000e+00  -1.1139970157813336e-02 -3.0958737814820660e-03 0.0000000000000000e+00  -9.6485477357046816e-03 -3.8677701237572696e-03 0.0000000000000000e+00  -7.8391974787979726e-03 -4.5382270379659547e-03 0.0000000000000000e+00  -5.7620847165578536e-03 -5.0674733548018826e-03 0.0000000000000000e+00  -3.4928425326892902e-03 -5.3599984052946706e-03 0.0000000000000000e+00  -1.2396248522344600e-03 -4.6364939979288873e-03 0.0000000000000000e+00  0.0000000000000000e+00 0.0000000000000000e+00 0.0000000000000000e+00  0.0000000000000000e+00 0.0000000000000000e+00 0.0000000000000000e+00  -1.1482155659676009e-03 5.9108841144136694e-03 0.0000000000000000e+00  -3.2575741155957496e-03 6.8553079951653656e-03 0.0000000000000000e+00  -5.4077951115660584e-03 6.6018936912489046e-03 0.0000000000000000e+00  -7.4355160177393478e-03 6.1197550779293021e-03 0.0000000000000000e+00  -9.2859358184141511e-03 5.4849867210082781e-03 0.0000000000000000e+00  -1.0915372700494556e-02 4.7130373318964199e-03 0.0000000000000000e+00  -1.2284416188162280e-02 3.8171040794603255e-03 0.0000000000000000e+00  -1.3357930421597377e-02 2.8111640126965332e-03 0.0000000000000000e+00  -1.4104593463757403e-02 1.7104184640969540e-03 0.0000000000000000e+00  -1.4496780149917591e-02 5.3216904882285448e-04 0.0000000000000000e+00  -1.4510901961290906e-02 -7.0278271562768059e-04 0.0000000000000000e+00  -1.4128551667345189e-02 -1.9684252923734286e-03 0.0000000000000000e+00  -1.3338641489720448e-02 -3.2319305198229517e-03 0.0000000000000000e+00  -1.2140660643634813e-02 -4.4527468823623295e-03 0.0000000000000000e+00  -1.0548311999107607e-02 -5.5830585609311974e-03 0.0000000000000000e+00  -8.5939246615845313e-03 -6.5698477602741528e-03 0.0000000000000000e+00  -6.3299845668776753e-03 -7.3529503263404282e-03 0.0000000000000000e+00  -3.8412500298675846e-03 -7.7935932506944094e-03 0.0000000000000000e+00  -1.3629405795088558e-03 -6.7681916811761526e-03 0.0000000000000000e+00  0.0000000000000000e+00 0.0000000000000000e+00 0.0000000000000000e+00  0.0000000000000000e+00 0.0000000000000000e+00 0.0000000000000000e+00  -1.2485391692469401e-03 7.8883204176066288e-03 0.0000000000000000e+00  -3.5432766901455368e-03 9.1287197277845639e-03 0.0000000000000000e+00  -5.8826685423709882e-03 8.7899126794171046e-03 0.0000000000000000e+00  -8.0890083941918666e-03 8.1490891354567951e-03 0.0000000000000000e+00  -1.0104760404374614e-02 7.3077194369649389e-03 0.0000000000000000e+00  -1.1884705828852716e-02 6.2871339855882337e-03 0.0000000000000000e+00  -1.3388644268832730e-02 5.1050062212761906e-03 0.0000000000000000e+00  -1.4580729416510240e-02 3.7791700990480849e-03 0.0000000000000000e+00  -1.5428266075347714e-02 2.3280451997996264e-03 0.0000000000000000e+00  -1.5900837837254621e-02 7.7186009538643548e-04 0.0000000000000000e+00  -1.5970000965050874e-02 -8.6518287760750060e-04 0.0000000000000000e+00  -1.5610144297742120e-02 -2.5520429585929134e-03 0.0000000000000000e+00  -1.4800949537670407e-02 -4.2478111525685730e-03 0.0000000000000000e+00  -1.3531878672848415e-02 -5.8994408203869751e-03 0.0000000000000000e+00  -1.1807908711056912e-02 -7.4414507478440511e-03 0.0000000000000000e+00  -9.6569504627246686e-03 -8.7984158755539475e-03 0.0000000000000000e+00  -7.1338001065227915e-03 -9.8832561708396202e-03 0.0000000000000000e+00  -4.3364931917024485e-03 -1.0503269820370731e-02 0.0000000000000000e+00  -1.5391824744941799e-03 -9.1446983965681947e-03 0.0000000000000000e+00  0.0000000000000000e+00 0.0000000000000000e+00 0.0000000000000000e+00  0.0000000000000000e+00 0.0000000000000000e+00 0.0000000000000000e+00  -1.3796674999502565e-03 1.0057827424387442e-02 0.0000000000000000e+00  -3.9156188826035216e-03 1.1621454520583474e-02 0.0000000000000000e+00  -6.4988413011198573e-03 1.1188470823732109e-02 0.0000000000000000e+00  -8.9339983678985106e-03 1.0374504736631363e-02 0.0000000000000000e+00  -1.1160060023446355e-02 9.3097925750310808e-03 0.0000000000000000e+00  -1.3130419301274836e-02 8.0229699261553048e-03 0.0000000000000000e+00  -1.4804898132677215e-02 6.5368525334939670e-03 0.0000000000000000e+00  -1.6148040372534703e-02 4.8729005328252695e-03 0.0000000000000000e+00  -1.7126773376044482e-02 3.0515322393051070e-03 0.0000000000000000e+00  -1.7708275562325515e-02 1.0937074492276563e-03 0.0000000000000000e+00  -1.7858488965035592e-02 -9.7593442126502484e-04 0.0000000000000000e+00  -1.7542160177014932e-02 -3.1245062594809237e-03 0.0000000000000000e+00  -1.6725307821617397e-02 -5.3054674051110562e-03 0.0000000000000000e+00  -1.5381181806078174e-02 -7.4537327158456044e-03 0.0000000000000000e+00  -1.3499147635578992e-02 -9.4833520562138066e-03 0.0000000000000000e+00  -1.1097190290808304e-02 -1.1289700854997184e-02 0.0000000000000000e+00  -8.2306181430600277e-03 -1.2748153345571145e-02 0.0000000000000000e+00  -5.0152875027048545e-03 -1.3595375249609583e-02 0.0000000000000000e+00  -1.7815899061592994e-03 -1.1863105698820032e-02 0.0000000000000000e+00  0.0000000000000000e+00 0.0000000000000000e+00 0.0000000000000000e+00  0.0000000000000000e+00 0.0000000000000000e+00 0.0000000000000000e+00  -1.5455334928502732e-03 1.2473585789959871e-02 0.0000000000000000e+00  -4.3849734029494025e-03 1.4393213080825648e-02 0.0000000000000000e+00  -7.2721103694403551e-03 1.3852372778861092e-02 0.0000000000000000e+00  -9.9895615236571655e-03 1.2844630114275281e-02 0.0000000000000000e+00  -1.2472167979956253e-02 1.1533733133809593e-02 0.0000000000000000e+00  -1.4672736371508923e-02 9.9579003576820355e-03 0.0000000000000000e+00  -1.6552849959281489e-02 8.1463476408659453e-03 0.0000000000000000e+00  -1.8079725432491391e-02 6.1241273816062605e-03 0.0000000000000000e+00  -1.9222196615976680e-02 3.9120995508888801e-03 0.0000000000000000e+00  -1.9946669603385016e-02 1.5287636206788818e-03 0.0000000000000000e+00  -2.0213564111792565e-02 -1.0054526439771721e-03 0.0000000000000000e+00  -1.9975602321319494e-02 -3.6613062851193899e-03 0.0000000000000000e+00  -1.9179409709917414e-02 -6.3918389558585498e-03 0.0000000000000000e+00  -1.7772661914532323e-02 -9.1228289702600194e-03 0.0000000000000000e+00  -1.5717163110689669e-02 -1.1745586002987253e-02 0.0000000000000000e+00  -1.3009843893718169e-02 -1.4116515231216643e-02 0.0000000000000000e+00  -9.7010240127107152e-03 -1.6056126844847439e-02 0.0000000000000000e+00  -5.9299567074996718e-03 -1.7203820549962497e-02 0.0000000000000000e+00  -2.1089074334924309e-03 -1.5045888370419864e-02 0.0000000000000000e+00  0.0000000000000000e+00 0.0000000000000000e+00 0.0000000000000000e+00  0.0000000000000000e+00 0.0000000000000000e+00 0.0000000000000000e+00  -1.7521194332407316e-03 1.5197461956082339e-02 0.0000000000000000e+00  -4.9669022336502246e-03 1.7510599504193310e-02 0.0000000000000000e+00  -8.2251750307323832e-03 1.6841198460007638e-02 0.0000000000000000e+00  -1.1282043806541337e-02 1.5610331958984173e-02 0.0000000000000000e+00  -1.4067831086869289e-02 1.4022046541540900e-02 0.0000000000000000e+00  -1.6536419421994616e-02 1.2127922869854131e-02 0.0000000000000000e+00  -1.8654286927711285e-02 9.9658338974070500e-03 0.0000000000000000e+00  -2.0395336426252471e-02 7.5647935857423368e-03 0.0000000000000000e+00  -2.1734571661369374e-02 4.9442640413985914e-03 0.0000000000000000e+00  -2.2641215820101243e-02 2.1161019990346358e-03 0.0000000000000000e+00  -2.3072075954744881e-02 -9.1009329876903821e-04 0.0000000000000000e+00  -2.2966828953094317e-02 -4.1180146149242007e-03 0.0000000000000000e+00  -2.2246149749750050e-02 -7.4711674475983533e-03 0.0000000000000000e+00  -2.0818224822143103e-02 -1.0894183582214586e-02 0.0000000000000000e+00  -1.8596626337556186e-02 -1.4255064329243564e-02 0.0000000000000000e+00  -1.5535616210977401e-02 -1.7357752703356814e-02 0.0000000000000000e+00  -1.1667409633923490e-02 -1.9940868312527969e-02 0.0000000000000000e+00  -7.1608191476753317e-03 -2.1503447566225214e-02 0.0000000000000000e+00  -2.5499477197761136e-03 -1.8854804851194021e-02 0.0000000000000000e+00  0.0000000000000000e+00 0.0000000000000000e+00 0.0000000000000000e+00  0.0000000000000000e+00 0.0000000000000000e+00 0.0000000000000000e+00  -2.0087957607295647e-03 1.8303199968384171e-02 0.0000000000000000e+00  -5.6848937116985238e-03 2.1050672687926236e-02 0.0000000000000000e+00  -9.3912348969853246e-03 2.0220709859705630e-02 0.0000000000000000e+00  -1.2848623922993274e-02 1.8724035134223927e-02 0.0000000000000000e+00  -1.5982879364220076e-02 1.6814977474283260e-02 0.0000000000000000e+00  -1.8752046256040548e-02 1.4564458837868947e-02 0.0000000000000000e+00  -2.1132681479306779e-02 1.2022657724946532e-02 0.0000000000000000e+00  -2.3111820457119073e-02 9.2235627780463073e-03 0.0000000000000000e+00  -2.4677451624470378e-02 6.1835442202577539e-03 0.0000000000000000e+00  -2.5808034985337722e-02 2.9030410133083027e-03 0.0000000000000000e+00  -2.6463158646955195e-02 -6.2902667990798471e-04 0.0000000000000000e+00  -2.6571542169189031e-02 -4.4249069489136015e-03 0.0000000000000000e+00  -2.6020950805226026e-02 -8.4751673136189750e-03 0.0000000000000000e+00  -2.4661950086920303e-02 -1.2717792194962526e-02 0.0000000000000000e+00  -2.2327304746773080e-02 -1.7007529040449800e-02 0.0000000000000000e+00  -1.8887208644070754e-02 -2.1087473198198516e-02 0.0000000000000000e+00  -1.4322304498153676e-02 -2.4572108403824316e-02 0.0000000000000000e+00  -8.8341006544555185e-03 -2.6737447447465250e-02 0.0000000000000000e+00  -3.1484912649334972e-03 -2.3514222897025889e-02 0.0000000000000000e+00  0.0000000000000000e+00 0.0000000000000000e+00 0.0000000000000000e+00  0.0000000000000000e+00 0.0000000000000000e+00 0.0000000000000000e+00  -2.3305287107127301e-03 2.1882859083551275e-02 0.0000000000000000e+00  -6.5752116754561546e-03 2.5105419877308362e-02 0.0000000000000000e+00  -1.0819982304282267e-02 2.4064372496762697e-02 0.0000000000000000e+00  -1.4742848976350701e-02 2.2238481469700710e-02 0.0000000000000000e+00  -1.8266232574790459e-02 1.9947094314862853e-02 0.0000000000000000e+00  -2.1357916119437742e-02 1.7289542288740738e-02 0.0000000000000000e+00  -2.4012774574852836e-02 1.4333668911923489e-02 0.0000000000000000e+00  -2.6240414348140260e-02 1.1120379308408781e-02 0.0000000000000000e+00  -2.8051297592864326e-02 7.6618949464731870e-03 0.0000000000000000e+00  -2.9445014528937132e-02 3.9411719245916682e-03 0.0000000000000000e+00  -3.0396624492480557e-02 -8.4888270433868026e-05 0.0000000000000000e+00  -3.0826016783443759e-02 -4.4687878162095055e-03 0.0000000000000000e+00  -3.0594866508360987e-02 -9.2512862700366190e-03 0.0000000000000000e+00  -2.9481946931265022e-02 -1.4443453118291903e-02 0.0000000000000000e+00  -2.7185062350970110e-02 -1.9934674479152589e-02 0.0000000000000000e+00  -2.3401249243243525e-02 -2.5388250166672725e-02 0.0000000000000000e+00  -1.7976924924671556e-02 -3.0197652839434732e-02 0.0000000000000000e+00  -1.1148447350808480e-02 -3.3260696605084190e-02 0.0000000000000000e+00  -3.9700332233586809e-03 -2.9336248415519975e-02 0.0000000000000000e+00  0.0000000000000000e+00 0.0000000000000000e+00 0.0000000000000000e+00  0.0000000000000000e+00 0.0000000000000000e+00 0.0000000000000000e+00  -2.7420030142921406e-03 2.6057440656408849e-02 0.0000000000000000e+00  -7.6954258098608829e-03 2.9788727949540243e-02 0.0000000000000000e+00  -1.2587538207895026e-02 2.8455132988506531e-02 0.0000000000000000e+00  -1.7043379843723488e-02 2.6203905370750617e-02 0.0000000000000000e+00  -2.0985970233295206e-02 2.3441349502873608e-02 0.0000000000000000e+00  -2.4403047547123274e-02 2.0308234025988556e-02 0.0000000000000000e+00  -2.7320566342153185e-02 1.6896940059133201e-02 0.0000000000000000e+00  -2.9783165494428138e-02 1.3257802726637822e-02 0.0000000000000000e+00  -3.1837027291479900e-02 9.3979004636395736e-03 0.0000000000000000e+00  -3.3521973245597081e-02 5.2782969032058062e-03 0.0000000000000000e+00  -3.4834703528469825e-02 8.2413029582844265e-04 0.0000000000000000e+00  -3.5713771717672267e-02 -4.0845266008964253e-03 0.0000000000000000e+00  -3.6054356955680537e-02 -9.6337045121074761e-03 0.0000000000000000e+00  -3.5495833436962727e-02 -1.5970879087864896e-02 0.0000000000000000e+00  -3.3550253649037652e-02 -2.2973997857312224e-02 0.0000000000000000e+00  -2.9595294975211784e-02 -3.0296384804447088e-02 0.0000000000000000e+00  -2.3150296902424025e-02 -3.7081036746805282e-02 0.0000000000000000e+00  -1.4441607939553548e-02 -4.1562967828605947e-02 0.0000000000000000e+00  -5.1297715594937664e-03 -3.6782954686201887e-02 0.0000000000000000e+00  0.0000000000000000e+00 0.0000000000000000e+00 0.0000000000000000e+00  0.0000000000000000e+00 0.0000000000000000e+00 0.0000000000000000e+00  -3.2854761127540672e-03 3.0995056136566460e-02 0.0000000000000000e+00  -9.1396906072555087e-03 3.5246876459144608e-02 0.0000000000000000e+00  -1.4813088250425110e-02 3.3486599643825443e-02 0.0000000000000000e+00  -1.9867458651397933e-02 3.0661993364916217e-02 0.0000000000000000e+00  -2.4237787152178267e-02 2.7299193840400703e-02 0.0000000000000000e+00  -2.7951010687701578e-02 2.3597561492117430e-02 0.0000000000000000e+00  -3.1083538650385385e-02 1.9680547976157224e-02 0.0000000000000000e+00  -3.3730796284430604e-02 1.5608719458723781e-02 0.0000000000000000e+00  -3.5992196279506165e-02 1.1383081473648533e-02 0.0000000000000000e+00  -3.7961093254816142e-02 6.9475431918860136e-03 0.0000000000000000e+00  -3.9655369094266334e-02 2.1956169791081288e-03 0.0000000000000000e+00  -4.1187287198251522e-02 -3.1187666068353457e-03 0.0000000000000000e+00  -4.2369079030204197e-02 -9.2555888330570543e-03 0.0000000000000000e+00  -4.2749255780637860e-02 -1.6390230020120938e-02 0.0000000000000000e+00  -4.1931049800466413e-02 -2.5004797026214696e-02 0.0000000000000000e+00  -3.8395759652575447e-02 -3.5291436357304577e-02 0.0000000000000000e+00  -3.0875074363839679e-02 -4.5510207236995483e-02 0.0000000000000000e+00  -1.9330235341272432e-02 -5.2546217624648187e-02 0.0000000000000000e+00  -6.7875725584928054e-03 -4.6674752749748347e-02 0.0000000000000000e+00  0.0000000000000000e+00 0.0000000000000000e+00 0.0000000000000000e+00  0.0000000000000000e+00 0.0000000000000000e+00 0.0000000000000000e+00  -4.0365390409014537e-03 3.6942803626271649e-02 0.0000000000000000e+00  -1.1066833322853895e-02 4.1674165626703424e-02 0.0000000000000000e+00  -1.7686991460974976e-02 3.9261163314986580e-02 0.0000000000000000e+00  -2.3390805034703813e-02 3.5632851352831826e-02 0.0000000000000000e+00  -2.8155111777244026e-02 3.1483881699522341e-02 0.0000000000000000e+00  -3.2083004137967670e-