<?xml version="1.0"?>
<VTKFile type="UnstructuredGrid"  version="0.1"  >
<UnstructuredGrid>
<Piece  NumberOfPoints="441" NumberOfCells="800">
<Points>
<DataArray  type="Float64"  NumberOfComponents="3"  format="ascii">0 0 0  0.05 0 0  0.1 0 0  0.15 0 0  0.2 0 0  0.25 0 0  0.3 0 0  0.35 0 0  0.4 0 0  0.45 0 0  0.5 0 0  0.55 0 0  0.6 0 0  0.65 0 0  0.7 0 0  0.75 0 0  0.8 0 0  0.85 0 0  0.9 0 0  0.95 0 0  1 0 0  0 0.05 0  0.05 0.05 0  0.1 0.05 0  0.15 0.05 0  0.2 0.05 0  0.25 0.05 0  0.3 0.05 0  0.35 0.05 0  0.4 0.05 0  0.45 0.05 0  0.5 0.05 0  0.55 0.05 0  0.6 0.05 0  0.65 0.05 0  0.7 0.05 0  0.75 0.05 0  0.8 0.05 0  0.85 0.05 0  0.9 0.05 0  0.95 0.05 0  1 0.05 0  0 0.1 0  0.05 0.1 0  0.1 0.1 0  0.15 0.1 0  0.2 0.1 0  0.25 0.1 0  0.3 0.1 0  0.35 0.1 0  0.4 0.1 0  0.45 0.1 0  0.5 0.1 0  0.55 0.1 0  0.6 0.1 0  0.65 0.1 0  0.7 0.1 0  0.75 0.1 0  0.8 0.1 0  0.85 0.1 0  0.9 0.1 0  0.95 0.1 0  1 0.1 0  0 0.15 0  0.05 0.15 0  0.1 0.15 0  0.15 0.15 0  0.2 0.15 0  0.25 0.15 0  0.3 0.15 0  0.35 0.15 0  0.4 0.15 0  0.45 0.15 0  0.5 0.15 0  0.55 0.15 0  0.6 0.15 0  0.65 0.15 0  0.7 0.15 0  0.75 0.15 0  0.8 0.15 0  0.85 0.15 0  0.9 0.15 0  0.95 0.15 0  1 0.15 0  0 0.2 0  0.05 0.2 0  0.1 0.2 0  0.15 0.2 0  0.2 0.2 0  0.25 0.2 0  0.3 0.2 0  0.35 0.2 0  0.4 0.2 0  0.45 0.2 0  0.5 0.2 0  0.55 0.2 0  0.6 0.2 0  0.65 0.2 0  0.7 0.2 0  0.75 0.2 0  0.8 0.2 0  0.85 0.2 0  0.9 0.2 0  0.95 0.2 0  1 0.2 0  0 0.25 0  0.05 0.25 0  0.1 0.25 0  0.15 0.25 0  0.2 0.25 0  0.25 0.25 0  0.3 0.25 0  0.35 0.25 0  0.4 0.25 0  0.45 0.25 0  0.5 0.25 0  0.55 0.25 0  0.6 0.25 0  0.65 0.25 0  0.7 0.25 0  0.75 0.25 0  0.8 0.25 0  0.85 0.25 0  0.9 0.25 0  0.95 0.25 0  1 0.25 0  0 0.3 0  0.05 0.3 0  0.1 0.3 0  0.15 0.3 0  0.2 0.3 0  0.25 0.3 0  0.3 0.3 0  0.35 0.3 0  0.4 0.3 0  0.45 0.3 0  0.5 0.3 0  0.55 0.3 0  0.6 0.3 0  0.65 0.3 0  0.7 0.3 0  0.75 0.3 0  0.8 0.3 0  0.85 0.3 0  0.9 0.3 0  0.95 0.3 0  1 0.3 0  0 0.35 0  0.05 0.35 0  0.1 0.35 0  0.15 0.35 0  0.2 0.35 0  0.25 0.35 0  0.3 0.35 0  0.35 0.35 0  0.4 0.35 0  0.45 0.35 0  0.5 0.35 0  0.55 0.35 0  0.6 0.35 0  0.65 0.35 0  0.7 0.35 0  0.75 0.35 0  0.8 0.35 0  0.85 0.35 0  0.9 0.35 0  0.95 0.35 0  1 0.35 0  0 0.4 0  0.05 0.4 0  0.1 0.4 0  0.15 0.4 0  0.2 0.4 0  0.25 0.4 0  0.3 0.4 0  0.35 0.4 0  0.4 0.4 0  0.45 0.4 0  0.5 0.4 0  0.55 0.4 0  0.6 0.4 0  0.65 0.4 0  0.7 0.4 0  0.75 0.4 0  0.8 0.4 0  0.85 0.4 0  0.9 0.4 0  0.95 0.4 0  1 0.4 0  0 0.45 0  0.05 0.45 0  0.1 0.45 0  0.15 0.45 0  0.2 0.45 0  0.25 0.45 0  0.3 0.45 0  0.35 0.45 0  0.4 0.45 0  0.45 0.45 0  0.5 0.45 0  0.55 0.45 0  0.6 0.45 0  0.65 0.45 0  0.7 0.45 0  0.75 0.45 0  0.8 0.45 0  0.85 0.45 0  0.9 0.45 0  0.95 0.45 0  1 0.45 0  0 0.5 0  0.05 0.5 0  0.1 0.5 0  0.15 0.5 0  0.2 0.5 0  0.25 0.5 0  0.3 0.5 0  0.35 0.5 0  0.4 0.5 0  0.45 0.5 0  0.5 0.5 0  0.55 0.5 0  0.6 0.5 0  0.65 0.5 0  0.7 0.5 0  0.75 0.5 0  0.8 0.5 0  0.85 0.5 0  0.9 0.5 0  0.95 0.5 0  1 0.5 0  0 0.55 0  0.05 0.55 0  0.1 0.55 0  0.15 0.55 0  0.2 0.55 0  0.25 0.55 0  0.3 0.55 0  0.35 0.55 0  0.4 0.55 0  0.45 0.55 0  0.5 0.55 0  0.55 0.55 0  0.6 0.55 0  0.65 0.55 0  0.7 0.55 0  0.75 0.55 0  0.8 0.55 0  0.85 0.55 0  0.9 0.55 0  0.95 0.55 0  1 0.55 0  0 0.6 0  0.05 0.6 0  0.1 0.6 0  0.15 0.6 0  0.2 0.6 0  0.25 0.6 0  0.3 0.6 0  0.35 0.6 0  0.4 0.6 0  0.45 0.6 0  0.5 0.6 0  0.55 0.6 0  0.6 0.6 0  0.65 0.6 0  0.7 0.6 0  0.75 0.6 0  0.8 0.6 0  0.85 0.6 0  0.9 0.6 0  0.95 0.6 0  1 0.6 0  0 0.65 0  0.05 0.65 0  0.1 0.65 0  0.15 0.65 0  0.2 0.65 0  0.25 0.65 0  0.3 0.65 0  0.35 0.65 0  0.4 0.65 0  0.45 0.65 0  0.5 0.65 0  0.55 0.65 0  0.6 0.65 0  0.65 0.65 0  0.7 0.65 0  0.75 0.65 0  0.8 0.65 0  0.85 0.65 0  0.9 0.65 0  0.95 0.65 0  1 0.65 0  0 0.7 0  0.05 0.7 0  0.1 0.7 0  0.15 0.7 0  0.2 0.7 0  0.25 0.7 0  0.3 0.7 0  0.35 0.7 0  0.4 0.7 0  0.45 0.7 0  0.5 0.7 0  0.55 0.7 0  0.6 0.7 0  0.65 0.7 0  0.7 0.7 0  0.75 0.7 0  0.8 0.7 0  0.85 0.7 0  0.9 0.7 0  0.95 0.7 0  1 0.7 0  0 0.75 0  0.05 0.75 0  0.1 0.75 0  0.15 0.75 0  0.2 0.75 0  0.25 0.75 0  0.3 0.75 0  0.35 0.75 0  0.4 0.75 0  0.45 0.75 0  0.5 0.75 0  0.55 0.75 0  0.6 0.75 0  0.65 0.75 0  0.7 0.75 0  0.75 0.75 0  0.8 0.75 0  0.85 0.75 0  0.9 0.75 0  0.95 0.75 0  1 0.75 0  0 0.8 0  0.05 0.8 0  0.1 0.8 0  0.15 0.8 0  0.2 0.8 0  0.25 0.8 0  0.3 0.8 0  0.35 0.8 0  0.4 0.8 0  0.45 0.8 0  0.5 0.8 0  0.55 0.8 0  0.6 0.8 0  0.65 0.8 0  0.7 0.8 0  0.75 0.8 0  0.8 0.8 0  0.85 0.8 0  0.9 0.8 0  0.95 0.8 0  1 0.8 0  0 0.85 0  0.05 0.85 0  0.1 0.85 0  0.15 0.85 0  0.2 0.85 0  0.25 0.85 0  0.3 0.85 0  0.35 0.85 0  0.4 0.85 0  0.45 0.85 0  0.5 0.85 0  0.55 0.85 0  0.6 0.85 0  0.65 0.85 0  0.7 0.85 0  0.75 0.85 0  0.8 0.85 0  0.85 0.85 0  0.9 0.85 0  0.95 0.85 0  1 0.85 0  0 0.9 0  0.05 0.9 0  0.1 0.9 0  0.15 0.9 0  0.2 0.9 0  0.25 0.9 0  0.3 0.9 0  0.35 0.9 0  0.4 0.9 0  0.45 0.9 0  0.5 0.9 0  0.55 0.9 0  0.6 0.9 0  0.65 0.9 0  0.7 0.9 0  0.75 0.9 0  0.8 0.9 0  0.85 0.9 0  0.9 0.9 0  0.95 0.9 0  1 0.9 0  0 0.95 0  0.05 0.95 0  0.1 0.95 0  0.15 0.95 0  0.2 0.95 0  0.25 0.95 0  0.3 0.95 0  0.35 0.95 0  0.4 0.95 0  0.45 0.95 0  0.5 0.95 0  0.55 0.95 0  0.6 0.95 0  0.65 0.95 0  0.7 0.95 0  0.75 0.95 0  0.8 0.95 0  0.85 0.95 0  0.9 0.95 0  0.95 0.95 0  1 0.95 0  0 1 0  0.05 1 0  0.1 1 0  0.15 1 0  0.2 1 0  0.25 1 0  0.3 1 0  0.35 1 0  0.4 1 0  0.45 1 0  0.5 1 0  0.55 1 0  0.6 1 0  0.65 1 0  0.7 1 0  0.75 1 0  0.8 1 0  0.85 1 0  0.9 1 0  0.95 1 0  1 1 0  </DataArray>
</Points>
<Cells>
[...]
<PointData  Vectors="f_137"> 
<DataArray  type="Float64"  Name="f_137"  NumberOfComponents="3" format="ascii">0.0000000000000000e+00 0.0000000000000000e+00 0.0000000000000000e+00  0.0000000000000000e+00 0.0000000000000000e+00 0.0000000000000000e+00  0.0000000000000000e+00 0.0000000000000000e+00 0.0000000000000000e+00  0.0000000000000000e+00 0.0000000000000000e+00 0.0000000000000000e+00  0.0000000000000000e+00 0.0000000000000000e+00 0.0000000000000000e+00  0.0000000000000000e+00 0.0000000000000000e+00 0.0000000000000000e+00  0.0000000000000000e+00 0.0000000000000000e+00 0.0000000000000000e+00  0.0000000000000000e+00 0.0000000000000000e+00 0.0000000000000000e+00  0.0000000000000000e+00 0.0000000000000000e+00 0.0000000000000000e+00  0.0000000000000000e+00 0.0000000000000000e+00 0.0000000000000000e+00  0.0000000000000000e+00 0.0000000000000000e+00 0.0000000000000000e+00  0.0000000000000000e+00 0.0000000000000000e+00 0.0000000000000000e+00  0.0000000000000000e+00 0.0000000000000000e+00 0.0000000000000000e+00  0.0000000000000000e+00 0.0000000000000000e+00 0.0000000000000000e+00  0.0000000000000000e+00 0.0000000000000000e+00 0.0000000000000000e+00  0.0000000000000000e+00 0.0000000000000000e+00 0.0000000000000000e+00  0.0000000000000000e+00 0.0000000000000000e+00 0.0000000000000000e+00  0.0000000000000000e+00 0.0000000000000000e+00 0.0000000000000000e+00  0.0000000000000000e+00 0.0000000000000000e+00 0.0000000000000000e+00  0.0000000000000000e+00 0.0000000000000000e+00 0.0000000000000000e+00  0.0000000000000000e+00 0.0000000000000000e+00 0.0000000000000000e+00  0.0000000000000000e+00 0.0000000000000000e+00 0.0000000000000000e+00  -7.9744864164521957e-04 7.8988017201987639e-04 0.0000000000000000e+00  -2.3167055760734885e-03 9.6259600408751876e-04 0.0000000000000000e+00  -3.8988884302647063e-03 9.2548795912668878e-04 0.0000000000000000e+00  -5.3876236717568630e-03 8.6065447161714082e-04 0.0000000000000000e+00  -6.7485798143443482e-03 7.7519358970267707e-04 0.0000000000000000e+00  -7.9462322901782921e-03 6.7002106576670125e-04 0.0000000000000000e+00  -8.9492838552153609e-03 5.4637517993199301e-04 0.0000000000000000e+00  -9.7291333740112639e-03 4.0579993834319360e-04 0.0000000000000000e+00  -1.0260573447654055e-02 2.5028276534476288e-04 0.0000000000000000e+00  -1.0522506869394196e-02 8.2363790410382135e-05 0.0000000000000000e+00  -1.0498852374920528e-02 -9.4675821628636910e-05 0.0000000000000000e+00  -1.0179740217881409e-02 -2.7662717014337524e-04 0.0000000000000000e+00  -9.5629309774320024e-03 -4.5822514524703655e-04 0.0000000000000000e+00  -8.6553839238459641e-03 -6.3316540832017421e-04 0.0000000000000000e+00  -7.4745507547394957e-03 -7.9430693309528089e-04 0.0000000000000000e+00  -6.0494409408096677e-03 -9.3411058215484347e-04 0.0000000000000000e+00  -4.4207695516513875e-03 -1.0439309983281632e-03 0.0000000000000000e+00  -2.6509801484386839e-03 -1.0994771348557578e-03 0.0000000000000000e+00  -9.0763907613266247e-04 -9.0872714887283140e-04 0.0000000000000000e+00  0.0000000000000000e+00 0.0000000000000000e+00 0.0000000000000000e+00  0.0000000000000000e+00 0.0000000000000000e+00 0.0000000000000000e+00  -1.0253191279287832e-03 2.3463360772136488e-03 0.0000000000000000e+00  -2.8972915572022155e-03 2.7772817806431768e-03 0.0000000000000000e+00  -4.8139553720062053e-03 2.6801383229144433e-03 0.0000000000000000e+00  -6.6208536285295907e-03 2.4872853651783460e-03 0.0000000000000000e+00  -8.2676242500220112e-03 2.2325636171055883e-03 0.0000000000000000e+00  -9.7118610055856435e-03 1.9211877796134038e-03 0.0000000000000000e+00  -1.0916372528579688e-02 1.5576726302452529e-03 0.0000000000000000e+00  -1.1847783641881165e-02 1.1474161995230390e-03 0.0000000000000000e+00  -1.2477287777764072e-02 6.9678106442933865e-04 0.0000000000000000e+00  -1.2781123611517533e-02 2.1343907816739918e-04 0.0000000000000000e+00  -1.2741426490645868e-02 -2.9313964922978992e-04 0.0000000000000000e+00  -1.2347448337908190e-02 -8.1117251082763213e-04 0.0000000000000000e+00  -1.1597125528181032e-02 -1.3261855854072337e-03 0.0000000000000000e+00  -1.0498943095237171e-02 -1.8209719560235624e-03 0.0000000000000000e+00  -9.0735393487890361e-03 -2.2760782882009479e-03 0.0000000000000000e+00  -7.3555054788151915e-03 -2.6707685875195343e-03 0.0000000000000000e+00  -5.3937972066401075e-03 -2.9814612130203500e-03 0.0000000000000000e+00  -3.2604946352795378e-03 -3.1472363981533049e-03 0.0000000000000000e+00  -1.1529412165469269e-03 -2.6889254427891808e-03 0.0000000000000000e+00  0.0000000000000000e+00 0.0000000000000000e+00 0.0000000000000000e+00  0.0000000000000000e+00 0.0000000000000000e+00 0.0000000000000000e+00  -1.0792271818024467e-03 4.0876605979829886e-03 0.0000000000000000e+00  -3.0669193786367647e-03 4.7794448275801154e-03 0.0000000000000000e+00  -5.0960944707020023e-03 4.6083565980002510e-03 0.0000000000000000e+00  -7.0100358726608971e-03 4.2740555778159476e-03 0.0000000000000000e+00  -8.7554454541238242e-03 3.8326509284069762e-03 0.0000000000000000e+00  -1.0289306664423408e-02 3.2942390120168090e-03 0.0000000000000000e+00  -1.1572897282255270e-02 2.6675757898366645e-03 0.0000000000000000e+00  -1.2571635032315419e-02 1.9623562309628319e-03 0.0000000000000000e+00  -1.3255239742573985e-02 1.1895357516354928e-03 0.0000000000000000e+00  -1.3597991786790581e-02 3.6196729293096913e-04 0.0000000000000000e+00  -1.3579432244049111e-02 -5.0471115680064053e-04 0.0000000000000000e+00  -1.3185604007540118e-02 -1.3910738375979882e-03 0.0000000000000000e+00  -1.2410900131614888e-02 -2.2730747440484669e-03 0.0000000000000000e+00  -1.1260513841864064e-02 -3.1217600968830705e-03 0.0000000000000000e+00  -9.7528619345320523e-03 -3.9038891279825402e-03 0.0000000000000000e+00  -7.9223612053807898e-03 -4.5834653423547193e-03 0.0000000000000000e+00  -5.8199994285031871e-03 -5.1195810083510453e-03 0.0000000000000000e+00  -3.5230864166349188e-03 -5.4120118577705330e-03 0.0000000000000000e+00  -1.2471163938123438e-03 -4.6623469744427335e-03 0.0000000000000000e+00  0.0000000000000000e+00 0.0000000000000000e+00 0.0000000000000000e+00  0.0000000000000000e+00 0.0000000000000000e+00 0.0000000000000000e+00  -1.1509958573076410e-03 5.9284547249126842e-03 0.0000000000000000e+00  -3.2745745942569147e-03 6.9042471225133524e-03 0.0000000000000000e+00  -5.4439992705761046e-03 6.6555344954847264e-03 0.0000000000000000e+00  -7.4910454079467467e-03 6.1725794911422069e-03 0.0000000000000000e+00  -9.3602328591414173e-03 5.5358068821088494e-03 0.0000000000000000e+00  -1.1007501513056460e-02 4.7606776195393153e-03 0.0000000000000000e+00  -1.2393028443502188e-02 3.8601551861067946e-03 0.0000000000000000e+00  -1.3481177796795843e-02 2.8479627393953647e-03 0.0000000000000000e+00  -1.4240033563011425e-02 1.7390737734420492e-03 0.0000000000000000e+00  -1.4641281622759759e-02 5.5063646504943230e-04 0.0000000000000000e+00  -1.4660569029163469e-02 -6.9656625113997462e-04 0.0000000000000000e+00  -1.4278696844472378e-02 -1.9763380183407337e-03 0.0000000000000000e+00  -1.3483842399522061e-02 -3.2553992013356439e-03 0.0000000000000000e+00  -1.2274941193336910e-02 -4.4924437345874009e-03 0.0000000000000000e+00  -1.0665472276213232e-02 -5.6386111788365350e-03 0.0000000000000000e+00  -8.6879984258094196e-03 -6.6396113886624470e-03 0.0000000000000000e+00  -6.3958879075569457e-03 -7.4335323741771923e-03 0.0000000000000000e+00  -3.8758827752632913e-03 -7.8746576046001306e-03 0.0000000000000000e+00  -1.3716482269700370e-03 -6.8112508513559324e-03 0.0000000000000000e+00  0.0000000000000000e+00 0.0000000000000000e+00 0.0000000000000000e+00  0.0000000000000000e+00 0.0000000000000000e+00 0.0000000000000000e+00  -1.2509936341515663e-03 7.9142777460438421e-03 0.0000000000000000e+00  -3.5602655122023170e-03 9.1961936777461544e-03 0.0000000000000000e+00  -5.9196721931153405e-03 8.8634559586021414e-03 0.0000000000000000e+00  -8.1463319913722011e-03 8.2215525934528338e-03 0.0000000000000000e+00  -1.0182069385179002e-02 7.3775503362037108e-03 0.0000000000000000e+00  -1.1981335397629900e-02 6.3527962669162816e-03 0.0000000000000000e+00  -1.3503547617255402e-02 5.1646430284434429e-03 0.0000000000000000e+00  -1.4712359974965047e-02 3.8305615045363117e-03 0.0000000000000000e+00  -1.5574437385160879e-02 2.3686201640523955e-03 0.0000000000000000e+00  -1.6058565109732272e-02 7.9877068215000778e-04 0.0000000000000000e+00  -1.6135343947440171e-02 -8.5490084216130534e-04 0.0000000000000000e+00  -1.5778089707621814e-02 -2.5612010557044262e-03 0.0000000000000000e+00  -1.4965389118121718e-02 -4.2786843259656421e-03 0.0000000000000000e+00  -1.3685757713410317e-02 -5.9532946293354870e-03 0.0000000000000000e+00  -1.1943606851656401e-02 -7.5180534384292402e-03 0.0000000000000000e+00  -9.7668959271290517e-03 -8.8956329484331537e-03 0.0000000000000000e+00  -7.2113866752534141e-03 -9.9963645708300766e-03 0.0000000000000000e+00  -4.3775794089272388e-03 -1.0617874852462374e-02 0.0000000000000000e+00  -1.5496900506589116e-03 -9.2078636353368874e-03 0.0000000000000000e+00  0.0000000000000000e+00 0.0000000000000000e+00 0.0000000000000000e+00  0.0000000000000000e+00 0.0000000000000000e+00 0.0000000000000000e+00  -1.3817006635599822e-03 1.0092019878172372e-02 0.0000000000000000e+00  -3.9325606100316275e-03 1.1708190838677817e-02 0.0000000000000000e+00  -6.5367702224688427e-03 1.1282905631864289e-02 0.0000000000000000e+00  -8.9934557543292840e-03 1.0467825748819075e-02 0.0000000000000000e+00  -1.1241004474899521e-02 9.4001408402594605e-03 0.0000000000000000e+00  -1.3232548168104966e-02 8.1085017749991731e-03 0.0000000000000000e+00  -1.4927583236341664e-02 6.6152933631164436e-03 0.0000000000000000e+00  -1.6290179531069478e-02 4.9414642956159480e-03 0.0000000000000000e+00  -1.7286598039130737e-02 3.1068985517775302e-03 0.0000000000000000e+00  -1.7883110945995730e-02 1.1320700859409859e-03 0.0000000000000000e+00  -1.8044479568462217e-02 -9.5870809376324018e-04 0.0000000000000000e+00  -1.7734002578993976e-02 -3.1325522470507104e-03 0.0000000000000000e+00  -1.6916072409398738e-02 -5.3423954318645109e-03 0.0000000000000000e+00  -1.5562359216199246e-02 -7.5219013451340603e-03 0.0000000000000000e+00  -1.3661062527595233e-02 -9.5830531690178269e-03 0.0000000000000000e+00  -1.1229844990457899e-02 -1.1418432483486634e-02 0.0000000000000000e+00  -8.3250495354739093e-03 -1.2899590651986873e-02 0.0000000000000000e+00  -5.0657264001610115e-03 -1.3750024577076468e-02 0.0000000000000000e+00  -1.7947316743293629e-03 -1.1950679771080450e-02 0.0000000000000000e+00  0.0000000000000000e+00 0.0000000000000000e+00 0.0000000000000000e+00  0.0000000000000000e+00 0.0000000000000000e+00 0.0000000000000000e+00  -1.5469931676874269e-03 1.2515776411530512e-02 0.0000000000000000e+00  -4.4016985462778241e-03 1.4500054473081654e-02 0.0000000000000000e+00  -7.3108894265825437e-03 1.3968850693252976e-02 0.0000000000000000e+00  -1.0051219146307503e-02 1.2960246233567221e-02 0.0000000000000000e+00  -1.2557028955703136e-02 1.1646408204108467e-02 0.0000000000000000e+00  -1.4780965913509954e-02 1.0065566161617525e-02 0.0000000000000000e+00  -1.6684383807118144e-02 8.2463757875675149e-03 0.0000000000000000e+00  -1.8234096913708021e-02 6.2131931968483949e-03 0.0000000000000000e+00  -1.9398296135603177e-02 3.9860942657352870e-03 0.0000000000000000e+00  -2.0142416577121198e-02 1.5827678256077262e-03 0.0000000000000000e+00  -2.0425470154106538e-02 -9.7706461503600469e-04 0.0000000000000000e+00  -2.0198268173765171e-02 -3.6645171846613222e-03 0.0000000000000000e+00  -1.9405058680653099e-02 -6.4323092119397208e-03 0.0000000000000000e+00  -1.7990939046360344e-02 -9.2048418991534306e-03 0.0000000000000000e+00  -1.5915488405510426e-02 -1.1870705563937550e-02 0.0000000000000000e+00  -1.3174543071015277e-02 -1.4282221554708265e-02 0.0000000000000000e+00  -9.8194196322398536e-03 -1.6254119829155016e-02 0.0000000000000000e+00  -5.9937008717402054e-03 -1.7407859277675689e-02 0.0000000000000000e+00  -2.1257816891335811e-03 -1.5164040198302385e-02 0.0000000000000000e+00  0.0000000000000000e+00 0.0000000000000000e+00 0.0000000000000000e+00  0.0000000000000000e+00 0.0000000000000000e+00 0.0000000000000000e+00  -1.7527877356040365e-03 1.5247240858434112e-02 0.0000000000000000e+00  -4.9830805276374962e-03 1.7638405654176386e-02 0.0000000000000000e+00  -8.2644712003899275e-03 1.6980930953391527e-02 0.0000000000000000e+00  -1.1345604712579793e-02 1.5749800806995388e-02 0.0000000000000000e+00  -1.4156421401091353e-02 1.4159069176101239e-02 0.0000000000000000e+00  -1.6650786022238111e-02 1.2260329571002006e-02 0.0000000000000000e+00  -1.8795094536873325e-02 1.0090759728663997e-02 0.0000000000000000e+00  -2.0562988827257846e-02 7.6784693990997431e-03 0.0000000000000000e+00  -2.1928955510063155e-02 5.0418199059765779e-03 0.0000000000000000e+00  -2.2861280221925455e-02 2.1914093657926506e-03 0.0000000000000000e+00  -2.3315199861997548e-02 -8.6443446452542504e-04 0.0000000000000000e+00  -2.3228017139980607e-02 -4.1104478341961017e-03 0.0000000000000000e+00  -2.2517055208169375e-02 -7.5105203105794638e-03 0.0000000000000000e+00  -2.1086375339925252e-02 -1.0988178660469123e-02 0.0000000000000000e+00  -1.8845391488184322e-02 -1.4407995089694814e-02 0.0000000000000000e+00  -1.5745616137521543e-02 -1.7567778172742694e-02 0.0000000000000000e+00  -1.1819933679636609e-02 -2.0197075492193666e-02 0.0000000000000000e+00  -7.2433849823990435e-03 -2.1770188181269683e-02 0.0000000000000000e+00  -2.5720109873665011e-03 -1.9012191994649930e-02 0.0000000000000000e+00  0.0000000000000000e+00 0.0000000000000000e+00 0.0000000000000000e+00  0.0000000000000000e+00 0.0000000000000000e+00 0.0000000000000000e+00  -2.0083869811653105e-03 1.8359885059959447e-02 0.0000000000000000e+00  -5.7000181661788505e-03 2.1200218873823101e-02 0.0000000000000000e+00  -9.4304151391921189e-03 2.0384854686141939e-02 0.0000000000000000e+00  -1.2913354052270603e-02 1.8888912989101621e-02 0.0000000000000000e+00  -1.6074431038957421e-02 1.6978455756250389e-02 0.0000000000000000e+00  -1.8871856414107203e-02 1.4724437774804686e-02 0.0000000000000000e+00  -2.1282307489312001e-02 1.2176221511206875e-02 0.0000000000000000e+00  -2.3292803408426457e-02 9.3666840578737007e-03 0.0000000000000000e+00  -2.4891085962038487e-02 6.3107635099744156e-03 0.0000000000000000e+00  -2.6054847712161208e-02 3.0071392641809486e-03 0.0000000000000000e+00  -2.6742297254940185e-02 -5.5743239456868205e-04 0.0000000000000000e+00  -2.6879473495654043e-02 -4.3976875925772988e-03 0.0000000000000000e+00  -2.6349619266209812e-02 -8.5058899196481692e-03 0.0000000000000000e+00  -2.4996859195633776e-02 -1.2819637945758975e-02 0.0000000000000000e+00  -2.2646327987910411e-02 -1.7189846870666207e-02 0.0000000000000000e+00  -1.9162031331711633e-02 -2.1350812324442404e-02 0.0000000000000000e+00  -1.4524087303016122e-02 -2.4902626653776922e-02 0.0000000000000000e+00  -8.9434307378789546e-03 -2.7086030658192210e-02 0.0000000000000000e+00  -3.1777024629153871e-03 -2.3723208945201305e-02 0.0000000000000000e+00  0.0000000000000000e+00 0.0000000000000000e+00 0.0000000000000000e+00  0.0000000000000000e+00 0.0000000000000000e+00 0.0000000000000000e+00  -2.3286925763205193e-03 2.1945394659417711e-02 0.0000000000000000e+00  -6.5885918561132562e-03 2.5277272839026949e-02 0.0000000000000000e+00  -1.0858082002410745e-02 2.4253883580158224e-02 0.0000000000000000e+00  -1.4807512003268160e-02 2.2430162252420182e-02 0.0000000000000000e+00  -1.8359290907150203e-02 2.0139052270725408e-02 0.0000000000000000e+00  -2.1481582227697076e-02 1.7479964158669942e-02 0.0000000000000000e+00  -2.4169636851503484e-02 1.4519839569178376e-02 0.0000000000000000e+00  -2.6433403053520519e-02 1.1298323074131884e-02 0.0000000000000000e+00  -2.8283442317416595e-02 7.8259937799961526e-03 0.0000000000000000e+00  -2.9719180320772230e-02 4.0834468342154833e-03 0.0000000000000000e+00  -3.0715261784292080e-02 2.4201939612359684e-05 0.0000000000000000e+00  -3.1188255582359541e-02 -4.4080607328713245e-03 0.0000000000000000e+00  -3.0995344314801505e-02 -9.2577014731437292e-03 0.0000000000000000e+00  -2.9905638086635940e-02 -1.4540246689649561e-02 0.0000000000000000e+00  -2.7603265973948014e-02 -2.0142471074645653e-02 0.0000000000000000e+00  -2.3771572306966353e-02 -2.5714806467174150e-02 0.0000000000000000e+00  -1.8252084354779055e-02 -3.0626702536658335e-02 0.0000000000000000e+00  -1.1296023522774316e-02 -3.3721550939924815e-02 0.0000000000000000e+00  -4.0084815150141966e-03 -2.9615169464069797e-02 0.0000000000000000e+00  0.0000000000000000e+00 0.0000000000000000e+00 0.0000000000000000e+00  0.0000000000000000e+00 0.0000000000000000e+00 0.0000000000000000e+00  -2.7383415549707634e-03 2.6124301766465310e-02 0.0000000000000000e+00  -7.7061995833053081e-03 2.9983102438910697e-02 0.0000000000000000e+00  -1.2623243130673440e-02 2.8670577753197864e-02 0.0000000000000000e+00  -1.7106183670028786e-02 2.6423424868999495e-02 0.0000000000000000e+00  -2.1078306104722715e-02 2.3663513872736283e-02 0.0000000000000000e+00  -2.4527958341960247e-02 2.0531756172922789e-02 0.0000000000000000e+00  -2.7481757989743227e-02 1.7119597309651326e-02 0.0000000000000000e+00  -2.9985041573632978e-02 1.3476118203210784e-02 0.0000000000000000e+00  -3.2084465515061819e-02 9.6067511581247531e-03 0.0000000000000000e+00  -3.3821528734801293e-02 5.4695951049986442e-03 0.0000000000000000e+00  -3.5192493162584673e-02 9.8616447351904135e-04 0.0000000000000000e+00  -3.6134409234476278e-02 -3.9695554230612965e-03 0.0000000000000000e+00  -3.6542454074060801e-02 -9.5953496376273584e-03 0.0000000000000000e+00  -3.6036065148368469e-02 -1.6047612835238961e-02 0.0000000000000000e+00  -3.4111135791994388e-02 -2.3200620230634624e-02 0.0000000000000000e+00  -3.0112928056418988e-02 -3.0704668353327066e-02 0.0000000000000000e+00  -2.3539122151391770e-02 -3.7656609838038778e-02 0.0000000000000000e+00  -1.4641896995351711e-02 -4.2188778403717035e-02 0.0000000000000000e+00  -5.1777806169186948e-03 -3.7153790075575163e-02 0.0000000000000000e+00  0.0000000000000000e+00 0.0000000000000000e+00 0.0000000000000000e+00  0.0000000000000000e+00 0.0000000000000000e+00 0.0000000000000000e+00  -3.2795843437460701e-03 3.1064179047557948e-02 0.0000000000000000e+00  -9.1468626720977737e-03 3.5463465841004647e-02 0.0000000000000000e+00  -1.4844727637556291e-02 3.3727931830242301e-02 0.0000000000000000e+00  -1.9926008210329339e-02 3.0909803035561730e-02 0.0000000000000000e+00  -2.4326336244391979e-02 2.7552760557857506e-02 0.0000000000000000e+00  -2.8073477737886293e-02 2.3856342010053794e-02 0.0000000000000000e+00  -3.1244728944155177e-02 1.9943080044156635e-02 0.0000000000000000e+00  -3.3936347916093498e-02 1.5872495923687543e-02 0.0000000000000000e+00  -3.6248862647519246e-02 1.1644194182944661e-02 0.0000000000000000e+00  -3.8280297882123400e-02 7.1993792034018463e-03 0.0000000000000000e+00  -4.0042940836127271e-02 2.4291729247244731e-03 0.0000000000000000e+00  -4.1669286167061503e-02 -2.9246022222635904e-03 0.0000000000000000e+00  -4.2949350978361965e-02 -9.1338726273525427e-03 0.0000000000000000e+00  -4.3432310330273054e-02 -1.6378989555795018e-02 0.0000000000000000e+00  -4.2705950234767857e-02 -2.5203560464864536e-02 0.0000000000000000e+00  -3.9148197333244025e-02 -3.5783333641091250e-02 0.0000000000000000e+00  -3.1451894954581214e-02 -4.6263291445428227e-02 0.0000000000000000e+00  -1.9607010190557422e-02 -5.3394399832515892e-02 0.0000000000000000e+00  -6.8405435594857686e-03 -4.7163757269519116e-02 0.0000000000000000e+00  0.0000000000000000e+00 0.0000000000000000e+00 0.0000000000000000e+00  0.0000000000000000e+00 0.0000000000000000e+00 0.0000000000000000e+00  -4.0280845680297798e-03 3.7011583317456638e-02 0.0000000000000000e+00  -1.1069346831575993e-02 4.1911911593110411e-02 0.0000000000000000e+00  -1.7712520724217268e-02 3.9527425714256416e-02 0.0000000000000000e+00  -2.3442031393557966e-02 3.5908569274840381e-02 0.0000000000000000e+00  -2.8235926957135137e-02 3.1769307201314323e-02 0.0000000000000000e+00  -3.2198295387014117e-0